
     Program PWSCF v.6.4.1 starts on 29Nov2024 at 17:34:51 

     This program is part of the open-source Quantum ESPRESSO suite
     for quantum simulation of materials; please cite
         "P. Giannozzi et al., J. Phys.:Condens. Matter 21 395502 (2009);
         "P. Giannozzi et al., J. Phys.:Condens. Matter 29 465901 (2017);
          URL http://www.quantum-espresso.org", 
     in publications or presentations arising from this work. More details at
     http://www.quantum-espresso.org/quote

     Parallel version (MPI & OpenMP), running on      12 processor cores
     Number of MPI processes:                 1
     Threads/MPI process:                    12

     MPI processes distributed on     1 nodes
     Waiting for input...
     Reading input from standard input

     Current dimensions of program PWSCF are:
     Max number of different atomic species (ntypx) = 10
     Max number of k-points (npk) =  40000
     Max angular momentum in pseudopotentials (lmaxx) =  3

     Atomic positions and unit cell read from directory:
     .\ab_f.save\

               file C.pbesol-n-kjpaw_psl.1.0.0.UPF: wavefunction(s)  2S 2P renormalized
               file F.pbesol-n-kjpaw_psl.1.0.0.UPF: wavefunction(s)  2S 2P renormalized

     Subspace diagonalization in iterative solution of the eigenvalue problem:
     a serial algorithm will be used


     G-vector sticks info
     --------------------
     sticks:   dense  smooth     PW     G-vecs:    dense   smooth      PW
     Sum         583     295     91                87545    30857    5751



     bravais-lattice index     =            0
     lattice parameter (alat)  =       4.8113  a.u.
     unit-cell volume          =     756.7755 (a.u.)^3
     number of atoms/cell      =            6
     number of atomic types    =            2
     number of electrons       =        30.00
     number of Kohn-Sham states=           30
     kinetic-energy cutoff     =      45.0000  Ry
     charge density cutoff     =     360.0000  Ry
     Exchange-correlation      = SLA PW PSX PSC ( 1  4 10  8 0 0)

     celldm(1)=   4.811264  celldm(2)=   0.000000  celldm(3)=   0.000000
     celldm(4)=   0.000000  celldm(5)=   0.000000  celldm(6)=   0.000000

     crystal axes: (cart. coord. in units of alat)
               a(1) = (   1.000000  -0.000000   0.000000 )  
               a(2) = (   0.500000   0.866025   0.000000 )  
               a(3) = (   0.000640   0.000376   7.846189 )  

     reciprocal axes: (cart. coord. in units 2 pi/alat)
               b(1) = (  1.000000 -0.577350 -0.000054 )  
               b(2) = (  0.000000  1.154700 -0.000055 )  
               b(3) = ( -0.000000  0.000000  0.127450 )  


     PseudoPot. # 1 for C  read from file:
     .\C.pbesol-n-kjpaw_psl.1.0.0.UPF
     MD5 check sum: 16577484316fc248e0eb7e27c7002f82
     Pseudo is Projector augmented-wave + core cor, Zval =  4.0
     Generated using "atomic" code by A. Dal Corso v.6.3
     Shape of augmentation charge: PSQ
     Using radial grid of 1073 points,  4 beta functions with: 
                l(1) =   0
                l(2) =   0
                l(3) =   1
                l(4) =   1
     Q(r) pseudized with 0 coefficients 


     PseudoPot. # 2 for F  read from file:
     .\F.pbesol-n-kjpaw_psl.1.0.0.UPF
     MD5 check sum: 9ed833fd24bdb51f4abd78f58267a7b7
     Pseudo is Projector augmented-wave + core cor, Zval =  7.0
     Generated using "atomic" code by A. Dal Corso v.6.3
     Shape of augmentation charge: PSQ
     Using radial grid of 1105 points,  4 beta functions with: 
                l(1) =   0
                l(2) =   0
                l(3) =   1
                l(4) =   1
     Q(r) pseudized with 0 coefficients 


     atomic species   valence    mass     pseudopotential
        C              4.00    12.01070     C ( 1.00)
        F              7.00    18.99840     F ( 1.00)

     No symmetry found


                                    s                        frac. trans.

      isym =  1     identity                                     

 cryst.   s( 1) = (     1          0          0      )
                  (     0          1          0      )
                  (     0          0          1      )

 cart.    s( 1) = (  1.0000000  0.0000000  0.0000000 )
                  (  0.0000000  1.0000000  0.0000000 )
                  (  0.0000000  0.0000000  1.0000000 )


   Cartesian axes

     site n.     atom                  positions (alat units)
         1           C   tau(   1) = (   0.0003519   0.0002070   3.9499945  )
         2           C   tau(   2) = (   0.5003526   0.2888824   4.1475548  )
         3           C   tau(   3) = (   1.0003489   0.5775541   4.9554475  )
         4           C   tau(   4) = (   0.5003487   0.2888789   4.7578829  )
         5           F   tau(   5) = (   0.0003452   0.0002019   3.4086906  )
         6           F   tau(   6) = (   1.0003517   0.5775569   5.4967546  )

   Crystallographic axes

     site n.     atom                  positions (cryst. coord.)
         1           C   tau(   1) = (  0.0000192  0.0000206  0.5034284  )
         2           C   tau(   2) = (  0.3333424  0.3333434  0.5286075  )
         3           C   tau(   3) = (  0.6666304  0.6666281  0.6315738  )
         4           C   tau(   4) = (  0.3333076  0.3333056  0.6063941  )
         5           F   tau(   5) = (  0.0000446  0.0000447  0.4344390  )
         6           F   tau(   6) = (  0.6666024  0.6666014  0.7005636  )

     number of k points=   301  Marzari-Vanderbilt smearing, width (Ry)=  0.0200
                       cart. coord. in units 2pi/alat
        k(    1) = (   0.0000000   0.0000000   0.0000000), wk =   0.0066445
        k(    2) = (   0.0050000   0.0050000   0.0000000), wk =   0.0066445
        k(    3) = (   0.0100000   0.0100000   0.0000000), wk =   0.0066445
        k(    4) = (   0.0150000   0.0150000   0.0000000), wk =   0.0066445
        k(    5) = (   0.0200000   0.0200000   0.0000000), wk =   0.0066445
        k(    6) = (   0.0250000   0.0250000   0.0000000), wk =   0.0066445
        k(    7) = (   0.0300000   0.0300000   0.0000000), wk =   0.0066445
        k(    8) = (   0.0350000   0.0350000   0.0000000), wk =   0.0066445
        k(    9) = (   0.0400000   0.0400000   0.0000000), wk =   0.0066445
        k(   10) = (   0.0450000   0.0450000   0.0000000), wk =   0.0066445
        k(   11) = (   0.0500000   0.0500000   0.0000000), wk =   0.0066445
        k(   12) = (   0.0550000   0.0550000   0.0000000), wk =   0.0066445
        k(   13) = (   0.0600000   0.0600000   0.0000000), wk =   0.0066445
        k(   14) = (   0.0650000   0.0650000   0.0000000), wk =   0.0066445
        k(   15) = (   0.0700000   0.0700000   0.0000000), wk =   0.0066445
        k(   16) = (   0.0750000   0.0750000   0.0000000), wk =   0.0066445
        k(   17) = (   0.0800000   0.0800000   0.0000000), wk =   0.0066445
        k(   18) = (   0.0850000   0.0850000   0.0000000), wk =   0.0066445
        k(   19) = (   0.0900000   0.0900000   0.0000000), wk =   0.0066445
        k(   20) = (   0.0950000   0.0950000   0.0000000), wk =   0.0066445
        k(   21) = (   0.1000000   0.1000000   0.0000000), wk =   0.0066445
        k(   22) = (   0.1050000   0.1050000   0.0000000), wk =   0.0066445
        k(   23) = (   0.1100000   0.1100000   0.0000000), wk =   0.0066445
        k(   24) = (   0.1150000   0.1150000   0.0000000), wk =   0.0066445
        k(   25) = (   0.1200000   0.1200000   0.0000000), wk =   0.0066445
        k(   26) = (   0.1250000   0.1250000   0.0000000), wk =   0.0066445
        k(   27) = (   0.1300000   0.1300000   0.0000000), wk =   0.0066445
        k(   28) = (   0.1350000   0.1350000   0.0000000), wk =   0.0066445
        k(   29) = (   0.1400000   0.1400000   0.0000000), wk =   0.0066445
        k(   30) = (   0.1450000   0.1450000   0.0000000), wk =   0.0066445
        k(   31) = (   0.1500000   0.1500000   0.0000000), wk =   0.0066445
        k(   32) = (   0.1550000   0.1550000   0.0000000), wk =   0.0066445
        k(   33) = (   0.1600000   0.1600000   0.0000000), wk =   0.0066445
        k(   34) = (   0.1650000   0.1650000   0.0000000), wk =   0.0066445
        k(   35) = (   0.1700000   0.1700000   0.0000000), wk =   0.0066445
        k(   36) = (   0.1750000   0.1750000   0.0000000), wk =   0.0066445
        k(   37) = (   0.1800000   0.1800000   0.0000000), wk =   0.0066445
        k(   38) = (   0.1850000   0.1850000   0.0000000), wk =   0.0066445
        k(   39) = (   0.1900000   0.1900000   0.0000000), wk =   0.0066445
        k(   40) = (   0.1950000   0.1950000   0.0000000), wk =   0.0066445
        k(   41) = (   0.2000000   0.2000000   0.0000000), wk =   0.0066445
        k(   42) = (   0.2050000   0.2050000   0.0000000), wk =   0.0066445
        k(   43) = (   0.2100000   0.2100000   0.0000000), wk =   0.0066445
        k(   44) = (   0.2150000   0.2150000   0.0000000), wk =   0.0066445
        k(   45) = (   0.2200000   0.2200000   0.0000000), wk =   0.0066445
        k(   46) = (   0.2250000   0.2250000   0.0000000), wk =   0.0066445
        k(   47) = (   0.2300000   0.2300000   0.0000000), wk =   0.0066445
        k(   48) = (   0.2350000   0.2350000   0.0000000), wk =   0.0066445
        k(   49) = (   0.2400000   0.2400000   0.0000000), wk =   0.0066445
        k(   50) = (   0.2450000   0.2450000   0.0000000), wk =   0.0066445
        k(   51) = (   0.2500000   0.2500000   0.0000000), wk =   0.0066445
        k(   52) = (   0.2550000   0.2550000   0.0000000), wk =   0.0066445
        k(   53) = (   0.2600000   0.2600000   0.0000000), wk =   0.0066445
        k(   54) = (   0.2650000   0.2650000   0.0000000), wk =   0.0066445
        k(   55) = (   0.2700000   0.2700000   0.0000000), wk =   0.0066445
        k(   56) = (   0.2750000   0.2750000   0.0000000), wk =   0.0066445
        k(   57) = (   0.2800000   0.2800000   0.0000000), wk =   0.0066445
        k(   58) = (   0.2850000   0.2850000   0.0000000), wk =   0.0066445
        k(   59) = (   0.2900000   0.2900000   0.0000000), wk =   0.0066445
        k(   60) = (   0.2950000   0.2950000   0.0000000), wk =   0.0066445
        k(   61) = (   0.3000000   0.3000000   0.0000000), wk =   0.0066445
        k(   62) = (   0.3050000   0.3050000   0.0000000), wk =   0.0066445
        k(   63) = (   0.3100000   0.3100000   0.0000000), wk =   0.0066445
        k(   64) = (   0.3150000   0.3150000   0.0000000), wk =   0.0066445
        k(   65) = (   0.3200000   0.3200000   0.0000000), wk =   0.0066445
        k(   66) = (   0.3250000   0.3250000   0.0000000), wk =   0.0066445
        k(   67) = (   0.3300000   0.3300000   0.0000000), wk =   0.0066445
        k(   68) = (   0.3350000   0.3350000   0.0000000), wk =   0.0066445
        k(   69) = (   0.3400000   0.3400000   0.0000000), wk =   0.0066445
        k(   70) = (   0.3450000   0.3450000   0.0000000), wk =   0.0066445
        k(   71) = (   0.3500000   0.3500000   0.0000000), wk =   0.0066445
        k(   72) = (   0.3550000   0.3550000   0.0000000), wk =   0.0066445
        k(   73) = (   0.3600000   0.3600000   0.0000000), wk =   0.0066445
        k(   74) = (   0.3650000   0.3650000   0.0000000), wk =   0.0066445
        k(   75) = (   0.3700000   0.3700000   0.0000000), wk =   0.0066445
        k(   76) = (   0.3750000   0.3750000   0.0000000), wk =   0.0066445
        k(   77) = (   0.3800000   0.3800000   0.0000000), wk =   0.0066445
        k(   78) = (   0.3850000   0.3850000   0.0000000), wk =   0.0066445
        k(   79) = (   0.3900000   0.3900000   0.0000000), wk =   0.0066445
        k(   80) = (   0.3950000   0.3950000   0.0000000), wk =   0.0066445
        k(   81) = (   0.4000000   0.4000000   0.0000000), wk =   0.0066445
        k(   82) = (   0.4050000   0.4050000   0.0000000), wk =   0.0066445
        k(   83) = (   0.4100000   0.4100000   0.0000000), wk =   0.0066445
        k(   84) = (   0.4150000   0.4150000   0.0000000), wk =   0.0066445
        k(   85) = (   0.4200000   0.4200000   0.0000000), wk =   0.0066445
        k(   86) = (   0.4250000   0.4250000   0.0000000), wk =   0.0066445
        k(   87) = (   0.4300000   0.4300000   0.0000000), wk =   0.0066445
        k(   88) = (   0.4350000   0.4350000   0.0000000), wk =   0.0066445
        k(   89) = (   0.4400000   0.4400000   0.0000000), wk =   0.0066445
        k(   90) = (   0.4450000   0.4450000   0.0000000), wk =   0.0066445
        k(   91) = (   0.4500000   0.4500000   0.0000000), wk =   0.0066445
        k(   92) = (   0.4550000   0.4550000   0.0000000), wk =   0.0066445
        k(   93) = (   0.4600000   0.4600000   0.0000000), wk =   0.0066445
        k(   94) = (   0.4650000   0.4650000   0.0000000), wk =   0.0066445
        k(   95) = (   0.4700000   0.4700000   0.0000000), wk =   0.0066445
        k(   96) = (   0.4750000   0.4750000   0.0000000), wk =   0.0066445
        k(   97) = (   0.4800000   0.4800000   0.0000000), wk =   0.0066445
        k(   98) = (   0.4850000   0.4850000   0.0000000), wk =   0.0066445
        k(   99) = (   0.4900000   0.4900000   0.0000000), wk =   0.0066445
        k(  100) = (   0.4950000   0.4950000   0.0000000), wk =   0.0066445
        k(  101) = (   0.5000000   0.5000000   0.0000000), wk =   0.0066445
        k(  102) = (   0.5016667   0.4983333   0.0000000), wk =   0.0066445
        k(  103) = (   0.5033333   0.4966667   0.0000000), wk =   0.0066445
        k(  104) = (   0.5050000   0.4950000   0.0000000), wk =   0.0066445
        k(  105) = (   0.5066667   0.4933333   0.0000000), wk =   0.0066445
        k(  106) = (   0.5083333   0.4916667   0.0000000), wk =   0.0066445
        k(  107) = (   0.5100000   0.4900000   0.0000000), wk =   0.0066445
        k(  108) = (   0.5116667   0.4883333   0.0000000), wk =   0.0066445
        k(  109) = (   0.5133333   0.4866667   0.0000000), wk =   0.0066445
        k(  110) = (   0.5150000   0.4850000   0.0000000), wk =   0.0066445
        k(  111) = (   0.5166667   0.4833333   0.0000000), wk =   0.0066445
        k(  112) = (   0.5183333   0.4816667   0.0000000), wk =   0.0066445
        k(  113) = (   0.5200000   0.4800000   0.0000000), wk =   0.0066445
        k(  114) = (   0.5216667   0.4783333   0.0000000), wk =   0.0066445
        k(  115) = (   0.5233333   0.4766667   0.0000000), wk =   0.0066445
        k(  116) = (   0.5250000   0.4750000   0.0000000), wk =   0.0066445
        k(  117) = (   0.5266667   0.4733333   0.0000000), wk =   0.0066445
        k(  118) = (   0.5283333   0.4716667   0.0000000), wk =   0.0066445
        k(  119) = (   0.5300000   0.4700000   0.0000000), wk =   0.0066445
        k(  120) = (   0.5316667   0.4683333   0.0000000), wk =   0.0066445
        k(  121) = (   0.5333333   0.4666667   0.0000000), wk =   0.0066445
        k(  122) = (   0.5350000   0.4650000   0.0000000), wk =   0.0066445
        k(  123) = (   0.5366667   0.4633333   0.0000000), wk =   0.0066445
        k(  124) = (   0.5383333   0.4616667   0.0000000), wk =   0.0066445
        k(  125) = (   0.5400000   0.4600000   0.0000000), wk =   0.0066445
        k(  126) = (   0.5416667   0.4583333   0.0000000), wk =   0.0066445
        k(  127) = (   0.5433333   0.4566667   0.0000000), wk =   0.0066445
        k(  128) = (   0.5450000   0.4550000   0.0000000), wk =   0.0066445
        k(  129) = (   0.5466667   0.4533333   0.0000000), wk =   0.0066445
        k(  130) = (   0.5483333   0.4516667   0.0000000), wk =   0.0066445
        k(  131) = (   0.5500000   0.4500000   0.0000000), wk =   0.0066445
        k(  132) = (   0.5516667   0.4483333   0.0000000), wk =   0.0066445
        k(  133) = (   0.5533333   0.4466667   0.0000000), wk =   0.0066445
        k(  134) = (   0.5550000   0.4450000   0.0000000), wk =   0.0066445
        k(  135) = (   0.5566667   0.4433333   0.0000000), wk =   0.0066445
        k(  136) = (   0.5583333   0.4416667   0.0000000), wk =   0.0066445
        k(  137) = (   0.5600000   0.4400000   0.0000000), wk =   0.0066445
        k(  138) = (   0.5616667   0.4383333   0.0000000), wk =   0.0066445
        k(  139) = (   0.5633333   0.4366667   0.0000000), wk =   0.0066445
        k(  140) = (   0.5650000   0.4350000   0.0000000), wk =   0.0066445
        k(  141) = (   0.5666667   0.4333333   0.0000000), wk =   0.0066445
        k(  142) = (   0.5683333   0.4316667   0.0000000), wk =   0.0066445
        k(  143) = (   0.5700000   0.4300000   0.0000000), wk =   0.0066445
        k(  144) = (   0.5716667   0.4283333   0.0000000), wk =   0.0066445
        k(  145) = (   0.5733333   0.4266667   0.0000000), wk =   0.0066445
        k(  146) = (   0.5750000   0.4250000   0.0000000), wk =   0.0066445
        k(  147) = (   0.5766667   0.4233333   0.0000000), wk =   0.0066445
        k(  148) = (   0.5783333   0.4216667   0.0000000), wk =   0.0066445
        k(  149) = (   0.5800000   0.4200000   0.0000000), wk =   0.0066445
        k(  150) = (   0.5816667   0.4183333   0.0000000), wk =   0.0066445
        k(  151) = (   0.5833333   0.4166667   0.0000000), wk =   0.0066445
        k(  152) = (   0.5850000   0.4150000   0.0000000), wk =   0.0066445
        k(  153) = (   0.5866667   0.4133333   0.0000000), wk =   0.0066445
        k(  154) = (   0.5883333   0.4116667   0.0000000), wk =   0.0066445
        k(  155) = (   0.5900000   0.4100000   0.0000000), wk =   0.0066445
        k(  156) = (   0.5916667   0.4083333   0.0000000), wk =   0.0066445
        k(  157) = (   0.5933333   0.4066667   0.0000000), wk =   0.0066445
        k(  158) = (   0.5950000   0.4050000   0.0000000), wk =   0.0066445
        k(  159) = (   0.5966667   0.4033333   0.0000000), wk =   0.0066445
        k(  160) = (   0.5983333   0.4016667   0.0000000), wk =   0.0066445
        k(  161) = (   0.6000000   0.4000000   0.0000000), wk =   0.0066445
        k(  162) = (   0.6016667   0.3983333   0.0000000), wk =   0.0066445
        k(  163) = (   0.6033333   0.3966667   0.0000000), wk =   0.0066445
        k(  164) = (   0.6050000   0.3950000   0.0000000), wk =   0.0066445
        k(  165) = (   0.6066667   0.3933333   0.0000000), wk =   0.0066445
        k(  166) = (   0.6083333   0.3916667   0.0000000), wk =   0.0066445
        k(  167) = (   0.6100000   0.3900000   0.0000000), wk =   0.0066445
        k(  168) = (   0.6116667   0.3883333   0.0000000), wk =   0.0066445
        k(  169) = (   0.6133333   0.3866667   0.0000000), wk =   0.0066445
        k(  170) = (   0.6150000   0.3850000   0.0000000), wk =   0.0066445
        k(  171) = (   0.6166667   0.3833333   0.0000000), wk =   0.0066445
        k(  172) = (   0.6183333   0.3816667   0.0000000), wk =   0.0066445
        k(  173) = (   0.6200000   0.3800000   0.0000000), wk =   0.0066445
        k(  174) = (   0.6216667   0.3783333   0.0000000), wk =   0.0066445
        k(  175) = (   0.6233333   0.3766667   0.0000000), wk =   0.0066445
        k(  176) = (   0.6250000   0.3750000   0.0000000), wk =   0.0066445
        k(  177) = (   0.6266667   0.3733333   0.0000000), wk =   0.0066445
        k(  178) = (   0.6283333   0.3716667   0.0000000), wk =   0.0066445
        k(  179) = (   0.6300000   0.3700000   0.0000000), wk =   0.0066445
        k(  180) = (   0.6316667   0.3683333   0.0000000), wk =   0.0066445
        k(  181) = (   0.6333333   0.3666667   0.0000000), wk =   0.0066445
        k(  182) = (   0.6350000   0.3650000   0.0000000), wk =   0.0066445
        k(  183) = (   0.6366667   0.3633333   0.0000000), wk =   0.0066445
        k(  184) = (   0.6383333   0.3616667   0.0000000), wk =   0.0066445
        k(  185) = (   0.6400000   0.3600000   0.0000000), wk =   0.0066445
        k(  186) = (   0.6416667   0.3583333   0.0000000), wk =   0.0066445
        k(  187) = (   0.6433333   0.3566667   0.0000000), wk =   0.0066445
        k(  188) = (   0.6450000   0.3550000   0.0000000), wk =   0.0066445
        k(  189) = (   0.6466667   0.3533333   0.0000000), wk =   0.0066445
        k(  190) = (   0.6483333   0.3516667   0.0000000), wk =   0.0066445
        k(  191) = (   0.6500000   0.3500000   0.0000000), wk =   0.0066445
        k(  192) = (   0.6516667   0.3483333   0.0000000), wk =   0.0066445
        k(  193) = (   0.6533333   0.3466667   0.0000000), wk =   0.0066445
        k(  194) = (   0.6550000   0.3450000   0.0000000), wk =   0.0066445
        k(  195) = (   0.6566667   0.3433333   0.0000000), wk =   0.0066445
        k(  196) = (   0.6583333   0.3416667   0.0000000), wk =   0.0066445
        k(  197) = (   0.6600000   0.3400000   0.0000000), wk =   0.0066445
        k(  198) = (   0.6616667   0.3383333   0.0000000), wk =   0.0066445
        k(  199) = (   0.6633333   0.3366667   0.0000000), wk =   0.0066445
        k(  200) = (   0.6650000   0.3350000   0.0000000), wk =   0.0066445
        k(  201) = (   0.6666667   0.3333333   0.0000000), wk =   0.0066445
        k(  202) = (   0.6600000   0.3300000   0.0000000), wk =   0.0066445
        k(  203) = (   0.6533333   0.3266667   0.0000000), wk =   0.0066445
        k(  204) = (   0.6466667   0.3233333   0.0000000), wk =   0.0066445
        k(  205) = (   0.6400000   0.3200000   0.0000000), wk =   0.0066445
        k(  206) = (   0.6333333   0.3166667   0.0000000), wk =   0.0066445
        k(  207) = (   0.6266667   0.3133333   0.0000000), wk =   0.0066445
        k(  208) = (   0.6200000   0.3100000   0.0000000), wk =   0.0066445
        k(  209) = (   0.6133333   0.3066667   0.0000000), wk =   0.0066445
        k(  210) = (   0.6066667   0.3033333   0.0000000), wk =   0.0066445
        k(  211) = (   0.6000000   0.3000000   0.0000000), wk =   0.0066445
        k(  212) = (   0.5933333   0.2966667   0.0000000), wk =   0.0066445
        k(  213) = (   0.5866667   0.2933333   0.0000000), wk =   0.0066445
        k(  214) = (   0.5800000   0.2900000   0.0000000), wk =   0.0066445
        k(  215) = (   0.5733333   0.2866667   0.0000000), wk =   0.0066445
        k(  216) = (   0.5666667   0.2833333   0.0000000), wk =   0.0066445
        k(  217) = (   0.5600000   0.2800000   0.0000000), wk =   0.0066445
        k(  218) = (   0.5533333   0.2766667   0.0000000), wk =   0.0066445
        k(  219) = (   0.5466667   0.2733333   0.0000000), wk =   0.0066445
        k(  220) = (   0.5400000   0.2700000   0.0000000), wk =   0.0066445
        k(  221) = (   0.5333333   0.2666667   0.0000000), wk =   0.0066445
        k(  222) = (   0.5266667   0.2633333   0.0000000), wk =   0.0066445
        k(  223) = (   0.5200000   0.2600000   0.0000000), wk =   0.0066445
        k(  224) = (   0.5133333   0.2566667   0.0000000), wk =   0.0066445
        k(  225) = (   0.5066667   0.2533333   0.0000000), wk =   0.0066445
        k(  226) = (   0.5000000   0.2500000   0.0000000), wk =   0.0066445
        k(  227) = (   0.4933333   0.2466667   0.0000000), wk =   0.0066445
        k(  228) = (   0.4866667   0.2433333   0.0000000), wk =   0.0066445
        k(  229) = (   0.4800000   0.2400000   0.0000000), wk =   0.0066445
        k(  230) = (   0.4733333   0.2366667   0.0000000), wk =   0.0066445
        k(  231) = (   0.4666667   0.2333333   0.0000000), wk =   0.0066445
        k(  232) = (   0.4600000   0.2300000   0.0000000), wk =   0.0066445
        k(  233) = (   0.4533333   0.2266667   0.0000000), wk =   0.0066445
        k(  234) = (   0.4466667   0.2233333   0.0000000), wk =   0.0066445
        k(  235) = (   0.4400000   0.2200000   0.0000000), wk =   0.0066445
        k(  236) = (   0.4333333   0.2166667   0.0000000), wk =   0.0066445
        k(  237) = (   0.4266667   0.2133333   0.0000000), wk =   0.0066445
        k(  238) = (   0.4200000   0.2100000   0.0000000), wk =   0.0066445
        k(  239) = (   0.4133333   0.2066667   0.0000000), wk =   0.0066445
        k(  240) = (   0.4066667   0.2033333   0.0000000), wk =   0.0066445
        k(  241) = (   0.4000000   0.2000000   0.0000000), wk =   0.0066445
        k(  242) = (   0.3933333   0.1966667   0.0000000), wk =   0.0066445
        k(  243) = (   0.3866667   0.1933333   0.0000000), wk =   0.0066445
        k(  244) = (   0.3800000   0.1900000   0.0000000), wk =   0.0066445
        k(  245) = (   0.3733333   0.1866667   0.0000000), wk =   0.0066445
        k(  246) = (   0.3666667   0.1833333   0.0000000), wk =   0.0066445
        k(  247) = (   0.3600000   0.1800000   0.0000000), wk =   0.0066445
        k(  248) = (   0.3533333   0.1766667   0.0000000), wk =   0.0066445
        k(  249) = (   0.3466667   0.1733333   0.0000000), wk =   0.0066445
        k(  250) = (   0.3400000   0.1700000   0.0000000), wk =   0.0066445
        k(  251) = (   0.3333333   0.1666667   0.0000000), wk =   0.0066445
        k(  252) = (   0.3266667   0.1633333   0.0000000), wk =   0.0066445
        k(  253) = (   0.3200000   0.1600000   0.0000000), wk =   0.0066445
        k(  254) = (   0.3133333   0.1566667   0.0000000), wk =   0.0066445
        k(  255) = (   0.3066667   0.1533333   0.0000000), wk =   0.0066445
        k(  256) = (   0.3000000   0.1500000   0.0000000), wk =   0.0066445
        k(  257) = (   0.2933333   0.1466667   0.0000000), wk =   0.0066445
        k(  258) = (   0.2866667   0.1433333   0.0000000), wk =   0.0066445
        k(  259) = (   0.2800000   0.1400000   0.0000000), wk =   0.0066445
        k(  260) = (   0.2733333   0.1366667   0.0000000), wk =   0.0066445
        k(  261) = (   0.2666667   0.1333333   0.0000000), wk =   0.0066445
        k(  262) = (   0.2600000   0.1300000   0.0000000), wk =   0.0066445
        k(  263) = (   0.2533333   0.1266667   0.0000000), wk =   0.0066445
        k(  264) = (   0.2466667   0.1233333   0.0000000), wk =   0.0066445
        k(  265) = (   0.2400000   0.1200000   0.0000000), wk =   0.0066445
        k(  266) = (   0.2333333   0.1166667   0.0000000), wk =   0.0066445
        k(  267) = (   0.2266667   0.1133333   0.0000000), wk =   0.0066445
        k(  268) = (   0.2200000   0.1100000   0.0000000), wk =   0.0066445
        k(  269) = (   0.2133333   0.1066667   0.0000000), wk =   0.0066445
        k(  270) = (   0.2066667   0.1033333   0.0000000), wk =   0.0066445
        k(  271) = (   0.2000000   0.1000000   0.0000000), wk =   0.0066445
        k(  272) = (   0.1933333   0.0966667   0.0000000), wk =   0.0066445
        k(  273) = (   0.1866667   0.0933333   0.0000000), wk =   0.0066445
        k(  274) = (   0.1800000   0.0900000   0.0000000), wk =   0.0066445
        k(  275) = (   0.1733333   0.0866667   0.0000000), wk =   0.0066445
        k(  276) = (   0.1666667   0.0833333   0.0000000), wk =   0.0066445
        k(  277) = (   0.1600000   0.0800000   0.0000000), wk =   0.0066445
        k(  278) = (   0.1533333   0.0766667   0.0000000), wk =   0.0066445
        k(  279) = (   0.1466667   0.0733333   0.0000000), wk =   0.0066445
        k(  280) = (   0.1400000   0.0700000   0.0000000), wk =   0.0066445
        k(  281) = (   0.1333333   0.0666667   0.0000000), wk =   0.0066445
        k(  282) = (   0.1266667   0.0633333   0.0000000), wk =   0.0066445
        k(  283) = (   0.1200000   0.0600000   0.0000000), wk =   0.0066445
        k(  284) = (   0.1133333   0.0566667   0.0000000), wk =   0.0066445
        k(  285) = (   0.1066667   0.0533333   0.0000000), wk =   0.0066445
        k(  286) = (   0.1000000   0.0500000   0.0000000), wk =   0.0066445
        k(  287) = (   0.0933333   0.0466667   0.0000000), wk =   0.0066445
        k(  288) = (   0.0866667   0.0433333   0.0000000), wk =   0.0066445
        k(  289) = (   0.0800000   0.0400000   0.0000000), wk =   0.0066445
        k(  290) = (   0.0733333   0.0366667   0.0000000), wk =   0.0066445
        k(  291) = (   0.0666667   0.0333333   0.0000000), wk =   0.0066445
        k(  292) = (   0.0600000   0.0300000   0.0000000), wk =   0.0066445
        k(  293) = (   0.0533333   0.0266667   0.0000000), wk =   0.0066445
        k(  294) = (   0.0466667   0.0233333   0.0000000), wk =   0.0066445
        k(  295) = (   0.0400000   0.0200000   0.0000000), wk =   0.0066445
        k(  296) = (   0.0333333   0.0166667   0.0000000), wk =   0.0066445
        k(  297) = (   0.0266667   0.0133333   0.0000000), wk =   0.0066445
        k(  298) = (   0.0200000   0.0100000   0.0000000), wk =   0.0066445
        k(  299) = (   0.0133333   0.0066667   0.0000000), wk =   0.0066445
        k(  300) = (   0.0066667   0.0033333   0.0000000), wk =   0.0066445
        k(  301) = (   0.0000000   0.0000000   0.0000000), wk =   0.0066445

                       cryst. coord.
        k(    1) = (   0.0000000   0.0000000   0.0000000), wk =   0.0066445
        k(    2) = (   0.0050000   0.0068301   0.0000051), wk =   0.0066445
        k(    3) = (   0.0100000   0.0136603   0.0000102), wk =   0.0066445
        k(    4) = (   0.0150000   0.0204904   0.0000152), wk =   0.0066445
        k(    5) = (   0.0200000   0.0273205   0.0000203), wk =   0.0066445
        k(    6) = (   0.0250000   0.0341506   0.0000254), wk =   0.0066445
        k(    7) = (   0.0300000   0.0409808   0.0000305), wk =   0.0066445
        k(    8) = (   0.0350000   0.0478109   0.0000356), wk =   0.0066445
        k(    9) = (   0.0400000   0.0546410   0.0000406), wk =   0.0066445
        k(   10) = (   0.0450000   0.0614711   0.0000457), wk =   0.0066445
        k(   11) = (   0.0500000   0.0683013   0.0000508), wk =   0.0066445
        k(   12) = (   0.0550000   0.0751314   0.0000559), wk =   0.0066445
        k(   13) = (   0.0600000   0.0819615   0.0000610), wk =   0.0066445
        k(   14) = (   0.0650000   0.0887917   0.0000660), wk =   0.0066445
        k(   15) = (   0.0700000   0.0956218   0.0000711), wk =   0.0066445
        k(   16) = (   0.0750000   0.1024519   0.0000762), wk =   0.0066445
        k(   17) = (   0.0800000   0.1092820   0.0000813), wk =   0.0066445
        k(   18) = (   0.0850000   0.1161122   0.0000864), wk =   0.0066445
        k(   19) = (   0.0900000   0.1229423   0.0000915), wk =   0.0066445
        k(   20) = (   0.0950000   0.1297724   0.0000965), wk =   0.0066445
        k(   21) = (   0.1000000   0.1366025   0.0001016), wk =   0.0066445
        k(   22) = (   0.1050000   0.1434327   0.0001067), wk =   0.0066445
        k(   23) = (   0.1100000   0.1502628   0.0001118), wk =   0.0066445
        k(   24) = (   0.1150000   0.1570929   0.0001169), wk =   0.0066445
        k(   25) = (   0.1200000   0.1639230   0.0001219), wk =   0.0066445
        k(   26) = (   0.1250000   0.1707532   0.0001270), wk =   0.0066445
        k(   27) = (   0.1300000   0.1775833   0.0001321), wk =   0.0066445
        k(   28) = (   0.1350000   0.1844134   0.0001372), wk =   0.0066445
        k(   29) = (   0.1400000   0.1912436   0.0001423), wk =   0.0066445
        k(   30) = (   0.1450000   0.1980737   0.0001473), wk =   0.0066445
        k(   31) = (   0.1500000   0.2049038   0.0001524), wk =   0.0066445
        k(   32) = (   0.1550000   0.2117339   0.0001575), wk =   0.0066445
        k(   33) = (   0.1600000   0.2185641   0.0001626), wk =   0.0066445
        k(   34) = (   0.1650000   0.2253942   0.0001677), wk =   0.0066445
        k(   35) = (   0.1700000   0.2322243   0.0001727), wk =   0.0066445
        k(   36) = (   0.1750000   0.2390544   0.0001778), wk =   0.0066445
        k(   37) = (   0.1800000   0.2458846   0.0001829), wk =   0.0066445
        k(   38) = (   0.1850000   0.2527147   0.0001880), wk =   0.0066445
        k(   39) = (   0.1900000   0.2595448   0.0001931), wk =   0.0066445
        k(   40) = (   0.1950000   0.2663750   0.0001981), wk =   0.0066445
        k(   41) = (   0.2000000   0.2732051   0.0002032), wk =   0.0066445
        k(   42) = (   0.2050000   0.2800352   0.0002083), wk =   0.0066445
        k(   43) = (   0.2100000   0.2868653   0.0002134), wk =   0.0066445
        k(   44) = (   0.2150000   0.2936955   0.0002185), wk =   0.0066445
        k(   45) = (   0.2200000   0.3005256   0.0002236), wk =   0.0066445
        k(   46) = (   0.2250000   0.3073557   0.0002286), wk =   0.0066445
        k(   47) = (   0.2300000   0.3141858   0.0002337), wk =   0.0066445
        k(   48) = (   0.2350000   0.3210160   0.0002388), wk =   0.0066445
        k(   49) = (   0.2400000   0.3278461   0.0002439), wk =   0.0066445
        k(   50) = (   0.2449999   0.3346762   0.0002490), wk =   0.0066445
        k(   51) = (   0.2499999   0.3415064   0.0002540), wk =   0.0066445
        k(   52) = (   0.2549999   0.3483365   0.0002591), wk =   0.0066445
        k(   53) = (   0.2599999   0.3551666   0.0002642), wk =   0.0066445
        k(   54) = (   0.2649999   0.3619967   0.0002693), wk =   0.0066445
        k(   55) = (   0.2699999   0.3688269   0.0002744), wk =   0.0066445
        k(   56) = (   0.2749999   0.3756570   0.0002794), wk =   0.0066445
        k(   57) = (   0.2799999   0.3824871   0.0002845), wk =   0.0066445
        k(   58) = (   0.2849999   0.3893172   0.0002896), wk =   0.0066445
        k(   59) = (   0.2899999   0.3961474   0.0002947), wk =   0.0066445
        k(   60) = (   0.2949999   0.4029775   0.0002998), wk =   0.0066445
        k(   61) = (   0.2999999   0.4098076   0.0003048), wk =   0.0066445
        k(   62) = (   0.3049999   0.4166377   0.0003099), wk =   0.0066445
        k(   63) = (   0.3099999   0.4234679   0.0003150), wk =   0.0066445
        k(   64) = (   0.3149999   0.4302980   0.0003201), wk =   0.0066445
        k(   65) = (   0.3199999   0.4371281   0.0003252), wk =   0.0066445
        k(   66) = (   0.3249999   0.4439583   0.0003302), wk =   0.0066445
        k(   67) = (   0.3299999   0.4507884   0.0003353), wk =   0.0066445
        k(   68) = (   0.3349999   0.4576185   0.0003404), wk =   0.0066445
        k(   69) = (   0.3399999   0.4644486   0.0003455), wk =   0.0066445
        k(   70) = (   0.3449999   0.4712788   0.0003506), wk =   0.0066445
        k(   71) = (   0.3499999   0.4781089   0.0003557), wk =   0.0066445
        k(   72) = (   0.3549999   0.4849390   0.0003607), wk =   0.0066445
        k(   73) = (   0.3599999   0.4917691   0.0003658), wk =   0.0066445
        k(   74) = (   0.3649999   0.4985993   0.0003709), wk =   0.0066445
        k(   75) = (   0.3699999   0.5054294   0.0003760), wk =   0.0066445
        k(   76) = (   0.3749999   0.5122595   0.0003811), wk =   0.0066445
        k(   77) = (   0.3799999   0.5190897   0.0003861), wk =   0.0066445
        k(   78) = (   0.3849999   0.5259198   0.0003912), wk =   0.0066445
        k(   79) = (   0.3899999   0.5327499   0.0003963), wk =   0.0066445
        k(   80) = (   0.3949999   0.5395800   0.0004014), wk =   0.0066445
        k(   81) = (   0.3999999   0.5464102   0.0004065), wk =   0.0066445
        k(   82) = (   0.4049999   0.5532403   0.0004115), wk =   0.0066445
        k(   83) = (   0.4099999   0.5600704   0.0004166), wk =   0.0066445
        k(   84) = (   0.4149999   0.5669005   0.0004217), wk =   0.0066445
        k(   85) = (   0.4199999   0.5737307   0.0004268), wk =   0.0066445
        k(   86) = (   0.4249999   0.5805608   0.0004319), wk =   0.0066445
        k(   87) = (   0.4299999   0.5873909   0.0004369), wk =   0.0066445
        k(   88) = (   0.4349999   0.5942211   0.0004420), wk =   0.0066445
        k(   89) = (   0.4399999   0.6010512   0.0004471), wk =   0.0066445
        k(   90) = (   0.4449999   0.6078813   0.0004522), wk =   0.0066445
        k(   91) = (   0.4499999   0.6147114   0.0004573), wk =   0.0066445
        k(   92) = (   0.4549999   0.6215416   0.0004623), wk =   0.0066445
        k(   93) = (   0.4599999   0.6283717   0.0004674), wk =   0.0066445
        k(   94) = (   0.4649999   0.6352018   0.0004725), wk =   0.0066445
        k(   95) = (   0.4699999   0.6420319   0.0004776), wk =   0.0066445
        k(   96) = (   0.4749999   0.6488621   0.0004827), wk =   0.0066445
        k(   97) = (   0.4799999   0.6556922   0.0004878), wk =   0.0066445
        k(   98) = (   0.4849999   0.6625223   0.0004928), wk =   0.0066445
        k(   99) = (   0.4899999   0.6693525   0.0004979), wk =   0.0066445
        k(  100) = (   0.4949999   0.6761826   0.0005030), wk =   0.0066445
        k(  101) = (   0.4999999   0.6830127   0.0005081), wk =   0.0066445
        k(  102) = (   0.5016666   0.6824027   0.0005085), wk =   0.0066445
        k(  103) = (   0.5033332   0.6817926   0.0005090), wk =   0.0066445
        k(  104) = (   0.5049999   0.6811826   0.0005094), wk =   0.0066445
        k(  105) = (   0.5066666   0.6805725   0.0005098), wk =   0.0066445
        k(  106) = (   0.5083332   0.6799625   0.0005103), wk =   0.0066445
        k(  107) = (   0.5099999   0.6793524   0.0005107), wk =   0.0066445
        k(  108) = (   0.5116666   0.6787424   0.0005112), wk =   0.0066445
        k(  109) = (   0.5133332   0.6781324   0.0005116), wk =   0.0066445
        k(  110) = (   0.5149999   0.6775223   0.0005120), wk =   0.0066445
        k(  111) = (   0.5166666   0.6769123   0.0005125), wk =   0.0066445
        k(  112) = (   0.5183332   0.6763022   0.0005129), wk =   0.0066445
        k(  113) = (   0.5199999   0.6756922   0.0005134), wk =   0.0066445
        k(  114) = (   0.5216666   0.6750822   0.0005138), wk =   0.0066445
        k(  115) = (   0.5233332   0.6744721   0.0005143), wk =   0.0066445
        k(  116) = (   0.5249999   0.6738621   0.0005147), wk =   0.0066445
        k(  117) = (   0.5266666   0.6732520   0.0005151), wk =   0.0066445
        k(  118) = (   0.5283332   0.6726420   0.0005156), wk =   0.0066445
        k(  119) = (   0.5299999   0.6720319   0.0005160), wk =   0.0066445
        k(  120) = (   0.5316666   0.6714219   0.0005165), wk =   0.0066445
        k(  121) = (   0.5333332   0.6708119   0.0005169), wk =   0.0066445
        k(  122) = (   0.5349999   0.6702018   0.0005173), wk =   0.0066445
        k(  123) = (   0.5366666   0.6695918   0.0005178), wk =   0.0066445
        k(  124) = (   0.5383332   0.6689817   0.0005182), wk =   0.0066445
        k(  125) = (   0.5399999   0.6683717   0.0005187), wk =   0.0066445
        k(  126) = (   0.5416666   0.6677616   0.0005191), wk =   0.0066445
        k(  127) = (   0.5433332   0.6671516   0.0005195), wk =   0.0066445
        k(  128) = (   0.5449999   0.6665416   0.0005200), wk =   0.0066445
        k(  129) = (   0.5466666   0.6659315   0.0005204), wk =   0.0066445
        k(  130) = (   0.5483332   0.6653215   0.0005209), wk =   0.0066445
        k(  131) = (   0.5499999   0.6647114   0.0005213), wk =   0.0066445
        k(  132) = (   0.5516666   0.6641014   0.0005218), wk =   0.0066445
        k(  133) = (   0.5533332   0.6634913   0.0005222), wk =   0.0066445
        k(  134) = (   0.5549999   0.6628813   0.0005226), wk =   0.0066445
        k(  135) = (   0.5566666   0.6622713   0.0005231), wk =   0.0066445
        k(  136) = (   0.5583332   0.6616612   0.0005235), wk =   0.0066445
        k(  137) = (   0.5599999   0.6610512   0.0005240), wk =   0.0066445
        k(  138) = (   0.5616666   0.6604411   0.0005244), wk =   0.0066445
        k(  139) = (   0.5633332   0.6598311   0.0005248), wk =   0.0066445
        k(  140) = (   0.5649999   0.6592210   0.0005253), wk =   0.0066445
        k(  141) = (   0.5666666   0.6586110   0.0005257), wk =   0.0066445
        k(  142) = (   0.5683332   0.6580010   0.0005262), wk =   0.0066445
        k(  143) = (   0.5699999   0.6573909   0.0005266), wk =   0.0066445
        k(  144) = (   0.5716666   0.6567809   0.0005270), wk =   0.0066445
        k(  145) = (   0.5733332   0.6561708   0.0005275), wk =   0.0066445
        k(  146) = (   0.5749999   0.6555608   0.0005279), wk =   0.0066445
        k(  147) = (   0.5766666   0.6549507   0.0005284), wk =   0.0066445
        k(  148) = (   0.5783332   0.6543407   0.0005288), wk =   0.0066445
        k(  149) = (   0.5799999   0.6537307   0.0005293), wk =   0.0066445
        k(  150) = (   0.5816666   0.6531206   0.0005297), wk =   0.0066445
        k(  151) = (   0.5833332   0.6525106   0.0005301), wk =   0.0066445
        k(  152) = (   0.5849999   0.6519005   0.0005306), wk =   0.0066445
        k(  153) = (   0.5866666   0.6512905   0.0005310), wk =   0.0066445
        k(  154) = (   0.5883332   0.6506804   0.0005315), wk =   0.0066445
        k(  155) = (   0.5899999   0.6500704   0.0005319), wk =   0.0066445
        k(  156) = (   0.5916666   0.6494604   0.0005323), wk =   0.0066445
        k(  157) = (   0.5933332   0.6488503   0.0005328), wk =   0.0066445
        k(  158) = (   0.5949999   0.6482403   0.0005332), wk =   0.0066445
        k(  159) = (   0.5966666   0.6476302   0.0005337), wk =   0.0066445
        k(  160) = (   0.5983333   0.6470202   0.0005341), wk =   0.0066445
        k(  161) = (   0.5999999   0.6464102   0.0005345), wk =   0.0066445
        k(  162) = (   0.6016666   0.6458001   0.0005350), wk =   0.0066445
        k(  163) = (   0.6033333   0.6451901   0.0005354), wk =   0.0066445
        k(  164) = (   0.6049999   0.6445800   0.0005359), wk =   0.0066445
        k(  165) = (   0.6066666   0.6439700   0.0005363), wk =   0.0066445
        k(  166) = (   0.6083333   0.6433599   0.0005368), wk =   0.0066445
        k(  167) = (   0.6099999   0.6427499   0.0005372), wk =   0.0066445
        k(  168) = (   0.6116666   0.6421399   0.0005376), wk =   0.0066445
        k(  169) = (   0.6133333   0.6415298   0.0005381), wk =   0.0066445
        k(  170) = (   0.6149999   0.6409198   0.0005385), wk =   0.0066445
        k(  171) = (   0.6166666   0.6403097   0.0005390), wk =   0.0066445
        k(  172) = (   0.6183333   0.6396997   0.0005394), wk =   0.0066445
        k(  173) = (   0.6199999   0.6390896   0.0005398), wk =   0.0066445
        k(  174) = (   0.6216666   0.6384796   0.0005403), wk =   0.0066445
        k(  175) = (   0.6233333   0.6378696   0.0005407), wk =   0.0066445
        k(  176) = (   0.6249999   0.6372595   0.0005412), wk =   0.0066445
        k(  177) = (   0.6266666   0.6366495   0.0005416), wk =   0.0066445
        k(  178) = (   0.6283333   0.6360394   0.0005420), wk =   0.0066445
        k(  179) = (   0.6299999   0.6354294   0.0005425), wk =   0.0066445
        k(  180) = (   0.6316666   0.6348193   0.0005429), wk =   0.0066445
        k(  181) = (   0.6333333   0.6342093   0.0005434), wk =   0.0066445
        k(  182) = (   0.6349999   0.6335993   0.0005438), wk =   0.0066445
        k(  183) = (   0.6366666   0.6329892   0.0005443), wk =   0.0066445
        k(  184) = (   0.6383333   0.6323792   0.0005447), wk =   0.0066445
        k(  185) = (   0.6399999   0.6317691   0.0005451), wk =   0.0066445
        k(  186) = (   0.6416666   0.6311591   0.0005456), wk =   0.0066445
        k(  187) = (   0.6433333   0.6305490   0.0005460), wk =   0.0066445
        k(  188) = (   0.6449999   0.6299390   0.0005465), wk =   0.0066445
        k(  189) = (   0.6466666   0.6293290   0.0005469), wk =   0.0066445
        k(  190) = (   0.6483333   0.6287189   0.0005473), wk =   0.0066445
        k(  191) = (   0.6499999   0.6281089   0.0005478), wk =   0.0066445
        k(  192) = (   0.6516666   0.6274988   0.0005482), wk =   0.0066445
        k(  193) = (   0.6533333   0.6268888   0.0005487), wk =   0.0066445
        k(  194) = (   0.6549999   0.6262787   0.0005491), wk =   0.0066445
        k(  195) = (   0.6566666   0.6256687   0.0005495), wk =   0.0066445
        k(  196) = (   0.6583333   0.6250587   0.0005500), wk =   0.0066445
        k(  197) = (   0.6599999   0.6244486   0.0005504), wk =   0.0066445
        k(  198) = (   0.6616666   0.6238386   0.0005509), wk =   0.0066445
        k(  199) = (   0.6633333   0.6232285   0.0005513), wk =   0.0066445
        k(  200) = (   0.6649999   0.6226185   0.0005518), wk =   0.0066445
        k(  201) = (   0.6666666   0.6220084   0.0005522), wk =   0.0066445
        k(  202) = (   0.6599999   0.6157884   0.0005467), wk =   0.0066445
        k(  203) = (   0.6533333   0.6095683   0.0005411), wk =   0.0066445
        k(  204) = (   0.6466666   0.6033482   0.0005356), wk =   0.0066445
        k(  205) = (   0.6399999   0.5971281   0.0005301), wk =   0.0066445
        k(  206) = (   0.6333333   0.5909080   0.0005246), wk =   0.0066445
        k(  207) = (   0.6266666   0.5846879   0.0005191), wk =   0.0066445
        k(  208) = (   0.6199999   0.5784679   0.0005135), wk =   0.0066445
        k(  209) = (   0.6133333   0.5722478   0.0005080), wk =   0.0066445
        k(  210) = (   0.6066666   0.5660277   0.0005025), wk =   0.0066445
        k(  211) = (   0.5999999   0.5598076   0.0004970), wk =   0.0066445
        k(  212) = (   0.5933333   0.5535875   0.0004915), wk =   0.0066445
        k(  213) = (   0.5866666   0.5473674   0.0004859), wk =   0.0066445
        k(  214) = (   0.5799999   0.5411474   0.0004804), wk =   0.0066445
        k(  215) = (   0.5733333   0.5349273   0.0004749), wk =   0.0066445
        k(  216) = (   0.5666666   0.5287072   0.0004694), wk =   0.0066445
        k(  217) = (   0.5599999   0.5224871   0.0004638), wk =   0.0066445
        k(  218) = (   0.5533333   0.5162670   0.0004583), wk =   0.0066445
        k(  219) = (   0.5466666   0.5100469   0.0004528), wk =   0.0066445
        k(  220) = (   0.5399999   0.5038268   0.0004473), wk =   0.0066445
        k(  221) = (   0.5333333   0.4976068   0.0004418), wk =   0.0066445
        k(  222) = (   0.5266666   0.4913867   0.0004362), wk =   0.0066445
        k(  223) = (   0.5199999   0.4851666   0.0004307), wk =   0.0066445
        k(  224) = (   0.5133333   0.4789465   0.0004252), wk =   0.0066445
        k(  225) = (   0.5066666   0.4727264   0.0004197), wk =   0.0066445
        k(  226) = (   0.4999999   0.4665063   0.0004141), wk =   0.0066445
        k(  227) = (   0.4933333   0.4602863   0.0004086), wk =   0.0066445
        k(  228) = (   0.4866666   0.4540662   0.0004031), wk =   0.0066445
        k(  229) = (   0.4800000   0.4478461   0.0003976), wk =   0.0066445
        k(  230) = (   0.4733333   0.4416260   0.0003921), wk =   0.0066445
        k(  231) = (   0.4666666   0.4354059   0.0003865), wk =   0.0066445
        k(  232) = (   0.4600000   0.4291858   0.0003810), wk =   0.0066445
        k(  233) = (   0.4533333   0.4229657   0.0003755), wk =   0.0066445
        k(  234) = (   0.4466666   0.4167457   0.0003700), wk =   0.0066445
        k(  235) = (   0.4400000   0.4105256   0.0003644), wk =   0.0066445
        k(  236) = (   0.4333333   0.4043055   0.0003589), wk =   0.0066445
        k(  237) = (   0.4266666   0.3980854   0.0003534), wk =   0.0066445
        k(  238) = (   0.4200000   0.3918653   0.0003479), wk =   0.0066445
        k(  239) = (   0.4133333   0.3856452   0.0003424), wk =   0.0066445
        k(  240) = (   0.4066666   0.3794252   0.0003368), wk =   0.0066445
        k(  241) = (   0.4000000   0.3732051   0.0003313), wk =   0.0066445
        k(  242) = (   0.3933333   0.3669850   0.0003258), wk =   0.0066445
        k(  243) = (   0.3866666   0.3607649   0.0003203), wk =   0.0066445
        k(  244) = (   0.3800000   0.3545448   0.0003147), wk =   0.0066445
        k(  245) = (   0.3733333   0.3483247   0.0003092), wk =   0.0066445
        k(  246) = (   0.3666666   0.3421046   0.0003037), wk =   0.0066445
        k(  247) = (   0.3600000   0.3358846   0.0002982), wk =   0.0066445
        k(  248) = (   0.3533333   0.3296645   0.0002927), wk =   0.0066445
        k(  249) = (   0.3466666   0.3234444   0.0002871), wk =   0.0066445
        k(  250) = (   0.3400000   0.3172243   0.0002816), wk =   0.0066445
        k(  251) = (   0.3333333   0.3110042   0.0002761), wk =   0.0066445
        k(  252) = (   0.3266666   0.3047841   0.0002706), wk =   0.0066445
        k(  253) = (   0.3200000   0.2985641   0.0002651), wk =   0.0066445
        k(  254) = (   0.3133333   0.2923440   0.0002595), wk =   0.0066445
        k(  255) = (   0.3066666   0.2861239   0.0002540), wk =   0.0066445
        k(  256) = (   0.3000000   0.2799038   0.0002485), wk =   0.0066445
        k(  257) = (   0.2933333   0.2736837   0.0002430), wk =   0.0066445
        k(  258) = (   0.2866666   0.2674636   0.0002374), wk =   0.0066445
        k(  259) = (   0.2800000   0.2612435   0.0002319), wk =   0.0066445
        k(  260) = (   0.2733333   0.2550235   0.0002264), wk =   0.0066445
        k(  261) = (   0.2666666   0.2488034   0.0002209), wk =   0.0066445
        k(  262) = (   0.2600000   0.2425833   0.0002154), wk =   0.0066445
        k(  263) = (   0.2533333   0.2363632   0.0002098), wk =   0.0066445
        k(  264) = (   0.2466666   0.2301431   0.0002043), wk =   0.0066445
        k(  265) = (   0.2400000   0.2239230   0.0001988), wk =   0.0066445
        k(  266) = (   0.2333333   0.2177030   0.0001933), wk =   0.0066445
        k(  267) = (   0.2266666   0.2114829   0.0001877), wk =   0.0066445
        k(  268) = (   0.2200000   0.2052628   0.0001822), wk =   0.0066445
        k(  269) = (   0.2133333   0.1990427   0.0001767), wk =   0.0066445
        k(  270) = (   0.2066666   0.1928226   0.0001712), wk =   0.0066445
        k(  271) = (   0.2000000   0.1866025   0.0001657), wk =   0.0066445
        k(  272) = (   0.1933333   0.1803825   0.0001601), wk =   0.0066445
        k(  273) = (   0.1866666   0.1741624   0.0001546), wk =   0.0066445
        k(  274) = (   0.1800000   0.1679423   0.0001491), wk =   0.0066445
        k(  275) = (   0.1733333   0.1617222   0.0001436), wk =   0.0066445
        k(  276) = (   0.1666666   0.1555021   0.0001380), wk =   0.0066445
        k(  277) = (   0.1600000   0.1492820   0.0001325), wk =   0.0066445
        k(  278) = (   0.1533333   0.1430619   0.0001270), wk =   0.0066445
        k(  279) = (   0.1466667   0.1368419   0.0001215), wk =   0.0066445
        k(  280) = (   0.1400000   0.1306218   0.0001160), wk =   0.0066445
        k(  281) = (   0.1333333   0.1244017   0.0001104), wk =   0.0066445
        k(  282) = (   0.1266667   0.1181816   0.0001049), wk =   0.0066445
        k(  283) = (   0.1200000   0.1119615   0.0000994), wk =   0.0066445
        k(  284) = (   0.1133333   0.1057414   0.0000939), wk =   0.0066445
        k(  285) = (   0.1066667   0.0995214   0.0000884), wk =   0.0066445
        k(  286) = (   0.1000000   0.0933013   0.0000828), wk =   0.0066445
        k(  287) = (   0.0933333   0.0870812   0.0000773), wk =   0.0066445
        k(  288) = (   0.0866667   0.0808611   0.0000718), wk =   0.0066445
        k(  289) = (   0.0800000   0.0746410   0.0000663), wk =   0.0066445
        k(  290) = (   0.0733333   0.0684209   0.0000607), wk =   0.0066445
        k(  291) = (   0.0666667   0.0622008   0.0000552), wk =   0.0066445
        k(  292) = (   0.0600000   0.0559808   0.0000497), wk =   0.0066445
        k(  293) = (   0.0533333   0.0497607   0.0000442), wk =   0.0066445
        k(  294) = (   0.0466667   0.0435406   0.0000387), wk =   0.0066445
        k(  295) = (   0.0400000   0.0373205   0.0000331), wk =   0.0066445
        k(  296) = (   0.0333333   0.0311004   0.0000276), wk =   0.0066445
        k(  297) = (   0.0266667   0.0248803   0.0000221), wk =   0.0066445
        k(  298) = (   0.0200000   0.0186603   0.0000166), wk =   0.0066445
        k(  299) = (   0.0133333   0.0124402   0.0000110), wk =   0.0066445
        k(  300) = (   0.0066667   0.0062201   0.0000055), wk =   0.0066445
        k(  301) = (   0.0000000   0.0000000   0.0000000), wk =   0.0066445

     Dense  grid:    87545 G-vectors     FFT dimensions: (  30,  30, 240)

     Smooth grid:    30857 G-vectors     FFT dimensions: (  24,  24, 162)

     Dynamical RAM for                 wfc:       1.77 MB

     Dynamical RAM for     wfc (w. buffer):       1.77 MB

     Dynamical RAM for           str. fact:       2.67 MB

     Dynamical RAM for           local pot:       0.00 MB

     Dynamical RAM for          nlocal pot:       2.83 MB

     Dynamical RAM for                qrad:       0.67 MB

     Dynamical RAM for          rho,v,vnew:       8.95 MB

     Dynamical RAM for           G-vectors:       5.24 MB

     Dynamical RAM for          h,s,v(r/c):       0.66 MB

     Dynamical RAM for          <psi|beta>:       0.02 MB

     Dynamical RAM for                 psi:       7.06 MB

     Dynamical RAM for                hpsi:       7.06 MB

     Dynamical RAM for                spsi:       7.06 MB

     Dynamical RAM for      wfcinit/wfcrot:       3.55 MB

     Dynamical RAM for           addusdens:      62.78 MB

     Estimated static dynamical RAM per process >      34.37 MB

     Estimated max dynamical RAM per process >      97.16 MB

     Check: negative core charge=   -0.000005

     The potential is recalculated from file :
     .\ab_f.save\charge-density


     negative rho (up, down):  6.085E-04 0.000E+00
     Starting wfcs are   24 randomized atomic wfcs +    6 random wfcs
     Checking if some PAW data can be deallocated... 

     Band Structure Calculation
     Davidson diagonalization with overlap

     Computing kpt #:     1
     total cpu time spent up to now is        8.0 secs

     Computing kpt #:     2
     total cpu time spent up to now is        8.6 secs

     Computing kpt #:     3
     total cpu time spent up to now is        9.3 secs

     Computing kpt #:     4
     total cpu time spent up to now is        9.9 secs

     Computing kpt #:     5
     total cpu time spent up to now is       10.4 secs

     Computing kpt #:     6
     total cpu time spent up to now is       11.0 secs

     Computing kpt #:     7
     total cpu time spent up to now is       11.6 secs

     Computing kpt #:     8
     total cpu time spent up to now is       12.3 secs

     Computing kpt #:     9
     total cpu time spent up to now is       13.3 secs

     Computing kpt #:    10
     total cpu time spent up to now is       14.2 secs

     Computing kpt #:    11
     total cpu time spent up to now is       14.8 secs

     Computing kpt #:    12
     total cpu time spent up to now is       15.5 secs

     Computing kpt #:    13
     total cpu time spent up to now is       16.2 secs

     Computing kpt #:    14
     total cpu time spent up to now is       16.8 secs

     Computing kpt #:    15
     total cpu time spent up to now is       17.5 secs

     Computing kpt #:    16
     total cpu time spent up to now is       18.3 secs

     Computing kpt #:    17
     total cpu time spent up to now is       18.9 secs

     Computing kpt #:    18
     total cpu time spent up to now is       19.6 secs

     Computing kpt #:    19
     total cpu time spent up to now is       20.3 secs

     Computing kpt #:    20
     total cpu time spent up to now is       20.9 secs

     Computing kpt #:    21
     total cpu time spent up to now is       21.7 secs

     Computing kpt #:    22
     total cpu time spent up to now is       22.4 secs

     Computing kpt #:    23
     total cpu time spent up to now is       23.0 secs

     Computing kpt #:    24
     total cpu time spent up to now is       23.5 secs

     Computing kpt #:    25
     total cpu time spent up to now is       24.1 secs

     Computing kpt #:    26
     total cpu time spent up to now is       24.7 secs

     Computing kpt #:    27
     total cpu time spent up to now is       25.3 secs

     Computing kpt #:    28
     total cpu time spent up to now is       25.9 secs

     Computing kpt #:    29
     total cpu time spent up to now is       26.5 secs

     Computing kpt #:    30
     total cpu time spent up to now is       27.0 secs

     Computing kpt #:    31
     total cpu time spent up to now is       27.6 secs

     Computing kpt #:    32
     total cpu time spent up to now is       28.2 secs

     Computing kpt #:    33
     total cpu time spent up to now is       28.8 secs

     Computing kpt #:    34
     total cpu time spent up to now is       29.4 secs

     Computing kpt #:    35
     total cpu time spent up to now is       30.0 secs

     Computing kpt #:    36
     total cpu time spent up to now is       30.5 secs

     Computing kpt #:    37
     total cpu time spent up to now is       31.1 secs

     Computing kpt #:    38
     total cpu time spent up to now is       31.6 secs

     Computing kpt #:    39
     total cpu time spent up to now is       32.2 secs

     Computing kpt #:    40
     total cpu time spent up to now is       32.8 secs

     Computing kpt #:    41
     total cpu time spent up to now is       33.4 secs

     Computing kpt #:    42
     total cpu time spent up to now is       34.0 secs

     Computing kpt #:    43
     total cpu time spent up to now is       34.5 secs

     Computing kpt #:    44
     total cpu time spent up to now is       35.1 secs

     Computing kpt #:    45
     total cpu time spent up to now is       35.7 secs

     Computing kpt #:    46
     total cpu time spent up to now is       36.4 secs

     Computing kpt #:    47
     total cpu time spent up to now is       37.1 secs

     Computing kpt #:    48
     total cpu time spent up to now is       37.8 secs

     Computing kpt #:    49
     total cpu time spent up to now is       38.4 secs

     Computing kpt #:    50
     total cpu time spent up to now is       39.0 secs

     Computing kpt #:    51
     total cpu time spent up to now is       39.6 secs

     Computing kpt #:    52
     total cpu time spent up to now is       40.3 secs

     Computing kpt #:    53
     total cpu time spent up to now is       40.9 secs

     Computing kpt #:    54
     total cpu time spent up to now is       41.5 secs

     Computing kpt #:    55
     total cpu time spent up to now is       42.2 secs

     Computing kpt #:    56
     total cpu time spent up to now is       42.8 secs

     Computing kpt #:    57
     total cpu time spent up to now is       43.4 secs

     Computing kpt #:    58
     total cpu time spent up to now is       43.9 secs

     Computing kpt #:    59
     total cpu time spent up to now is       44.6 secs

     Computing kpt #:    60
     total cpu time spent up to now is       45.2 secs

     Computing kpt #:    61
     total cpu time spent up to now is       45.8 secs

     Computing kpt #:    62
     total cpu time spent up to now is       46.3 secs

     Computing kpt #:    63
     total cpu time spent up to now is       46.9 secs

     Computing kpt #:    64
     total cpu time spent up to now is       47.5 secs

     Computing kpt #:    65
     total cpu time spent up to now is       48.2 secs

     Computing kpt #:    66
     total cpu time spent up to now is       48.9 secs

     Computing kpt #:    67
     total cpu time spent up to now is       49.5 secs

     Computing kpt #:    68
     total cpu time spent up to now is       50.2 secs

     Computing kpt #:    69
     total cpu time spent up to now is       50.9 secs

     Computing kpt #:    70
     total cpu time spent up to now is       51.6 secs

     Computing kpt #:    71
     total cpu time spent up to now is       52.4 secs

     Computing kpt #:    72
     total cpu time spent up to now is       53.1 secs

     Computing kpt #:    73
     total cpu time spent up to now is       53.9 secs

     Computing kpt #:    74
     total cpu time spent up to now is       54.7 secs

     Computing kpt #:    75
     total cpu time spent up to now is       55.4 secs

     Computing kpt #:    76
     total cpu time spent up to now is       56.2 secs

     Computing kpt #:    77
     total cpu time spent up to now is       56.9 secs

     Computing kpt #:    78
     total cpu time spent up to now is       57.6 secs

     Computing kpt #:    79
     total cpu time spent up to now is       58.3 secs

     Computing kpt #:    80
     total cpu time spent up to now is       59.0 secs

     Computing kpt #:    81
     total cpu time spent up to now is       59.7 secs

     Computing kpt #:    82
     total cpu time spent up to now is       60.4 secs

     Computing kpt #:    83
     total cpu time spent up to now is       61.1 secs

     Computing kpt #:    84
     total cpu time spent up to now is       61.7 secs

     Computing kpt #:    85
     total cpu time spent up to now is       62.3 secs

     Computing kpt #:    86
     total cpu time spent up to now is       62.9 secs

     Computing kpt #:    87
     total cpu time spent up to now is       63.5 secs

     Computing kpt #:    88
     total cpu time spent up to now is       64.2 secs

     Computing kpt #:    89
     total cpu time spent up to now is       64.8 secs

     Computing kpt #:    90
     total cpu time spent up to now is       65.4 secs

     Computing kpt #:    91
     total cpu time spent up to now is       66.2 secs

     Computing kpt #:    92
     total cpu time spent up to now is       66.8 secs

     Computing kpt #:    93
     total cpu time spent up to now is       67.4 secs

     Computing kpt #:    94
     total cpu time spent up to now is       68.2 secs

     Computing kpt #:    95
     total cpu time spent up to now is       69.0 secs

     Computing kpt #:    96
     total cpu time spent up to now is       69.8 secs

     Computing kpt #:    97
     total cpu time spent up to now is       70.6 secs

     Computing kpt #:    98
     total cpu time spent up to now is       71.4 secs

     Computing kpt #:    99
     total cpu time spent up to now is       72.2 secs

     Computing kpt #:   100
     total cpu time spent up to now is       72.9 secs

     Computing kpt #:   101
     total cpu time spent up to now is       73.7 secs

     Computing kpt #:   102
     total cpu time spent up to now is       74.4 secs

     Computing kpt #:   103
     total cpu time spent up to now is       75.2 secs

     Computing kpt #:   104
     total cpu time spent up to now is       75.9 secs

     Computing kpt #:   105
     total cpu time spent up to now is       76.6 secs

     Computing kpt #:   106
     total cpu time spent up to now is       77.4 secs

     Computing kpt #:   107
     total cpu time spent up to now is       78.1 secs

     Computing kpt #:   108
     total cpu time spent up to now is       78.8 secs

     Computing kpt #:   109
     total cpu time spent up to now is       79.4 secs

     Computing kpt #:   110
     total cpu time spent up to now is       80.1 secs

     Computing kpt #:   111
     total cpu time spent up to now is       80.8 secs

     Computing kpt #:   112
     total cpu time spent up to now is       81.5 secs

     Computing kpt #:   113
     total cpu time spent up to now is       82.3 secs

     Computing kpt #:   114
     total cpu time spent up to now is       83.0 secs

     Computing kpt #:   115
     total cpu time spent up to now is       83.7 secs

     Computing kpt #:   116
     total cpu time spent up to now is       84.4 secs

     Computing kpt #:   117
     total cpu time spent up to now is       85.2 secs

     Computing kpt #:   118
     total cpu time spent up to now is       85.9 secs

     Computing kpt #:   119
     total cpu time spent up to now is       86.6 secs

     Computing kpt #:   120
     total cpu time spent up to now is       87.3 secs

     Computing kpt #:   121
     total cpu time spent up to now is       88.0 secs

     Computing kpt #:   122
     total cpu time spent up to now is       88.6 secs

     Computing kpt #:   123
     total cpu time spent up to now is       89.3 secs

     Computing kpt #:   124
     total cpu time spent up to now is       90.0 secs

     Computing kpt #:   125
     total cpu time spent up to now is       90.7 secs

     Computing kpt #:   126
     total cpu time spent up to now is       91.3 secs

     Computing kpt #:   127
     total cpu time spent up to now is       92.0 secs

     Computing kpt #:   128
     total cpu time spent up to now is       92.6 secs

     Computing kpt #:   129
     total cpu time spent up to now is       93.3 secs

     Computing kpt #:   130
     total cpu time spent up to now is       94.0 secs

     Computing kpt #:   131
     total cpu time spent up to now is       94.7 secs

     Computing kpt #:   132
     total cpu time spent up to now is       95.3 secs

     Computing kpt #:   133
     total cpu time spent up to now is       96.0 secs

     Computing kpt #:   134
     total cpu time spent up to now is       96.7 secs

     Computing kpt #:   135
     total cpu time spent up to now is       97.4 secs

     Computing kpt #:   136
     total cpu time spent up to now is       98.2 secs

     Computing kpt #:   137
     total cpu time spent up to now is       99.0 secs

     Computing kpt #:   138
     total cpu time spent up to now is      100.0 secs

     Computing kpt #:   139
     total cpu time spent up to now is      100.8 secs

     Computing kpt #:   140
     total cpu time spent up to now is      101.6 secs

     Computing kpt #:   141
     total cpu time spent up to now is      102.3 secs

     Computing kpt #:   142
     total cpu time spent up to now is      103.4 secs

     Computing kpt #:   143
     total cpu time spent up to now is      104.1 secs

     Computing kpt #:   144
     total cpu time spent up to now is      104.8 secs

     Computing kpt #:   145
     total cpu time spent up to now is      105.5 secs

     Computing kpt #:   146
     total cpu time spent up to now is      106.1 secs

     Computing kpt #:   147
     total cpu time spent up to now is      106.7 secs

     Computing kpt #:   148
     total cpu time spent up to now is      107.3 secs

     Computing kpt #:   149
     total cpu time spent up to now is      107.9 secs

     Computing kpt #:   150
     total cpu time spent up to now is      108.6 secs

     Computing kpt #:   151
     total cpu time spent up to now is      109.2 secs

     Computing kpt #:   152
     total cpu time spent up to now is      109.9 secs

     Computing kpt #:   153
     total cpu time spent up to now is      110.7 secs

     Computing kpt #:   154
     total cpu time spent up to now is      111.4 secs

     Computing kpt #:   155
     total cpu time spent up to now is      112.1 secs

     Computing kpt #:   156
     total cpu time spent up to now is      112.7 secs

     Computing kpt #:   157
     total cpu time spent up to now is      113.4 secs

     Computing kpt #:   158
     total cpu time spent up to now is      114.1 secs

     Computing kpt #:   159
     total cpu time spent up to now is      114.7 secs

     Computing kpt #:   160
     total cpu time spent up to now is      115.3 secs

     Computing kpt #:   161
     total cpu time spent up to now is      116.1 secs

     Computing kpt #:   162
     total cpu time spent up to now is      116.8 secs

     Computing kpt #:   163
     total cpu time spent up to now is      117.4 secs

     Computing kpt #:   164
     total cpu time spent up to now is      118.1 secs

     Computing kpt #:   165
     total cpu time spent up to now is      118.9 secs

     Computing kpt #:   166
     total cpu time spent up to now is      119.5 secs

     Computing kpt #:   167
     total cpu time spent up to now is      120.1 secs

     Computing kpt #:   168
     total cpu time spent up to now is      120.8 secs

     Computing kpt #:   169
     total cpu time spent up to now is      121.5 secs

     Computing kpt #:   170
     total cpu time spent up to now is      122.2 secs

     Computing kpt #:   171
     total cpu time spent up to now is      122.8 secs

     Computing kpt #:   172
     total cpu time spent up to now is      123.4 secs

     Computing kpt #:   173
     total cpu time spent up to now is      124.0 secs

     Computing kpt #:   174
     total cpu time spent up to now is      124.6 secs

     Computing kpt #:   175
     total cpu time spent up to now is      125.2 secs

     Computing kpt #:   176
     total cpu time spent up to now is      125.7 secs

     Computing kpt #:   177
     total cpu time spent up to now is      126.3 secs

     Computing kpt #:   178
     total cpu time spent up to now is      126.9 secs

     Computing kpt #:   179
     total cpu time spent up to now is      127.4 secs

     Computing kpt #:   180
     total cpu time spent up to now is      128.0 secs

     Computing kpt #:   181
     total cpu time spent up to now is      128.5 secs

     Computing kpt #:   182
     total cpu time spent up to now is      129.1 secs

     Computing kpt #:   183
     total cpu time spent up to now is      129.7 secs

     Computing kpt #:   184
     total cpu time spent up to now is      130.2 secs

     Computing kpt #:   185
     total cpu time spent up to now is      130.8 secs

     Computing kpt #:   186
     total cpu time spent up to now is      131.4 secs

     Computing kpt #:   187
     total cpu time spent up to now is      131.9 secs

     Computing kpt #:   188
     total cpu time spent up to now is      132.5 secs

     Computing kpt #:   189
     total cpu time spent up to now is      133.1 secs

     Computing kpt #:   190
     total cpu time spent up to now is      133.7 secs

     Computing kpt #:   191
     total cpu time spent up to now is      134.3 secs

     Computing kpt #:   192
     total cpu time spent up to now is      134.9 secs

     Computing kpt #:   193
     total cpu time spent up to now is      135.6 secs

     Computing kpt #:   194
     total cpu time spent up to now is      136.2 secs

     Computing kpt #:   195
     total cpu time spent up to now is      136.8 secs

     Computing kpt #:   196
     total cpu time spent up to now is      137.5 secs

     Computing kpt #:   197
     total cpu time spent up to now is      138.4 secs

     Computing kpt #:   198
     total cpu time spent up to now is      139.1 secs

     Computing kpt #:   199
     total cpu time spent up to now is      139.7 secs

     Computing kpt #:   200
     total cpu time spent up to now is      140.4 secs

     Computing kpt #:   201
     total cpu time spent up to now is      141.0 secs

     Computing kpt #:   202
     total cpu time spent up to now is      141.6 secs

     Computing kpt #:   203
     total cpu time spent up to now is      142.3 secs

     Computing kpt #:   204
     total cpu time spent up to now is      143.0 secs

     Computing kpt #:   205
     total cpu time spent up to now is      143.7 secs

     Computing kpt #:   206
     total cpu time spent up to now is      144.3 secs

     Computing kpt #:   207
     total cpu time spent up to now is      144.9 secs

     Computing kpt #:   208
     total cpu time spent up to now is      145.7 secs

     Computing kpt #:   209
     total cpu time spent up to now is      146.5 secs

     Computing kpt #:   210
     total cpu time spent up to now is      147.2 secs

     Computing kpt #:   211
     total cpu time spent up to now is      148.1 secs

     Computing kpt #:   212
     total cpu time spent up to now is      148.9 secs

     Computing kpt #:   213
     total cpu time spent up to now is      149.7 secs

     Computing kpt #:   214
     total cpu time spent up to now is      150.4 secs

     Computing kpt #:   215
     total cpu time spent up to now is      151.2 secs

     Computing kpt #:   216
     total cpu time spent up to now is      152.0 secs

     Computing kpt #:   217
     total cpu time spent up to now is      152.7 secs

     Computing kpt #:   218
     total cpu time spent up to now is      153.3 secs

     Computing kpt #:   219
     total cpu time spent up to now is      153.8 secs

     Computing kpt #:   220
     total cpu time spent up to now is      154.5 secs

     Computing kpt #:   221
     total cpu time spent up to now is      155.3 secs

     Computing kpt #:   222
     total cpu time spent up to now is      155.9 secs

     Computing kpt #:   223
     total cpu time spent up to now is      156.5 secs

     Computing kpt #:   224
     total cpu time spent up to now is      157.1 secs

     Computing kpt #:   225
     total cpu time spent up to now is      157.7 secs

     Computing kpt #:   226
     total cpu time spent up to now is      158.3 secs

     Computing kpt #:   227
     total cpu time spent up to now is      158.9 secs

     Computing kpt #:   228
     total cpu time spent up to now is      159.5 secs

     Computing kpt #:   229
     total cpu time spent up to now is      160.0 secs

     Computing kpt #:   230
     total cpu time spent up to now is      160.6 secs

     Computing kpt #:   231
     total cpu time spent up to now is      161.2 secs

     Computing kpt #:   232
     total cpu time spent up to now is      161.9 secs

     Computing kpt #:   233
     total cpu time spent up to now is      162.7 secs

     Computing kpt #:   234
     total cpu time spent up to now is      163.4 secs

     Computing kpt #:   235
     total cpu time spent up to now is      164.1 secs

     Computing kpt #:   236
     total cpu time spent up to now is      164.8 secs

     Computing kpt #:   237
     total cpu time spent up to now is      165.5 secs

     Computing kpt #:   238
     total cpu time spent up to now is      166.3 secs

     Computing kpt #:   239
     total cpu time spent up to now is      167.0 secs

     Computing kpt #:   240
     total cpu time spent up to now is      167.7 secs

     Computing kpt #:   241
     total cpu time spent up to now is      168.2 secs

     Computing kpt #:   242
     total cpu time spent up to now is      168.9 secs

     Computing kpt #:   243
     total cpu time spent up to now is      169.5 secs

     Computing kpt #:   244
     total cpu time spent up to now is      170.1 secs

     Computing kpt #:   245
     total cpu time spent up to now is      170.7 secs

     Computing kpt #:   246
     total cpu time spent up to now is      171.3 secs

     Computing kpt #:   247
     total cpu time spent up to now is      171.9 secs

     Computing kpt #:   248
     total cpu time spent up to now is      172.4 secs

     Computing kpt #:   249
     total cpu time spent up to now is      173.0 secs

     Computing kpt #:   250
     total cpu time spent up to now is      173.7 secs

     Computing kpt #:   251
     total cpu time spent up to now is      174.3 secs

     Computing kpt #:   252
     total cpu time spent up to now is      174.9 secs

     Computing kpt #:   253
     total cpu time spent up to now is      175.5 secs

     Computing kpt #:   254
     total cpu time spent up to now is      176.1 secs

     Computing kpt #:   255
     total cpu time spent up to now is      176.7 secs

     Computing kpt #:   256
     total cpu time spent up to now is      177.3 secs

     Computing kpt #:   257
     total cpu time spent up to now is      177.9 secs

     Computing kpt #:   258
     total cpu time spent up to now is      178.5 secs

     Computing kpt #:   259
     total cpu time spent up to now is      179.1 secs

     Computing kpt #:   260
     total cpu time spent up to now is      179.7 secs

     Computing kpt #:   261
     total cpu time spent up to now is      180.3 secs

     Computing kpt #:   262
     total cpu time spent up to now is      180.9 secs

     Computing kpt #:   263
     total cpu time spent up to now is      181.5 secs

     Computing kpt #:   264
     total cpu time spent up to now is      182.1 secs

     Computing kpt #:   265
     total cpu time spent up to now is      182.7 secs

     Computing kpt #:   266
     total cpu time spent up to now is      183.3 secs

     Computing kpt #:   267
     total cpu time spent up to now is      183.9 secs

     Computing kpt #:   268
     total cpu time spent up to now is      184.5 secs

     Computing kpt #:   269
     total cpu time spent up to now is      185.0 secs

     Computing kpt #:   270
     total cpu time spent up to now is      185.6 secs

     Computing kpt #:   271
     total cpu time spent up to now is      186.2 secs

     Computing kpt #:   272
     total cpu time spent up to now is      186.8 secs

     Computing kpt #:   273
     total cpu time spent up to now is      187.4 secs

     Computing kpt #:   274
     total cpu time spent up to now is      188.0 secs

     Computing kpt #:   275
     total cpu time spent up to now is      188.6 secs

     Computing kpt #:   276
     total cpu time spent up to now is      189.2 secs

     Computing kpt #:   277
     total cpu time spent up to now is      189.8 secs

     Computing kpt #:   278
     total cpu time spent up to now is      190.3 secs

     Computing kpt #:   279
     total cpu time spent up to now is      190.9 secs

     Computing kpt #:   280
     total cpu time spent up to now is      191.5 secs

     Computing kpt #:   281
     total cpu time spent up to now is      192.1 secs

     Computing kpt #:   282
     total cpu time spent up to now is      192.8 secs

     Computing kpt #:   283
     total cpu time spent up to now is      193.4 secs

     Computing kpt #:   284
     total cpu time spent up to now is      194.0 secs

     Computing kpt #:   285
     total cpu time spent up to now is      194.8 secs

     Computing kpt #:   286
     total cpu time spent up to now is      195.4 secs

     Computing kpt #:   287
     total cpu time spent up to now is      196.0 secs

     Computing kpt #:   288
     total cpu time spent up to now is      196.6 secs

     Computing kpt #:   289
     total cpu time spent up to now is      197.2 secs

     Computing kpt #:   290
     total cpu time spent up to now is      197.9 secs

     Computing kpt #:   291
     total cpu time spent up to now is      198.6 secs

     Computing kpt #:   292
     total cpu time spent up to now is      199.2 secs

     Computing kpt #:   293
     total cpu time spent up to now is      199.8 secs

     Computing kpt #:   294
     total cpu time spent up to now is      200.3 secs

     Computing kpt #:   295
     total cpu time spent up to now is      200.9 secs

     Computing kpt #:   296
     total cpu time spent up to now is      201.5 secs

     Computing kpt #:   297
     total cpu time spent up to now is      202.1 secs

     Computing kpt #:   298
     total cpu time spent up to now is      202.6 secs

     Computing kpt #:   299
     total cpu time spent up to now is      203.2 secs

     Computing kpt #:   300
     total cpu time spent up to now is      203.8 secs

     Computing kpt #:   301
     total cpu time spent up to now is      204.3 secs

     ethr =  3.33E-09,  avg # of iterations = 20.6

     total cpu time spent up to now is      204.3 secs

     End of band structure calculation

          k = 0.0000 0.0000 0.0000 (  3855 PWs)   bands (ev):

   -27.2618 -27.2095 -21.5648 -18.1460 -12.1353  -9.3637  -6.1794  -5.6673
    -5.6673  -5.4009  -5.4008  -3.1440  -3.1440  -1.9096  -1.9096   2.0011
     4.5874   4.8381   4.8381   5.3560   5.6524   6.1491   6.1492   6.4192
     7.5128   8.8998  10.1180  11.1212  11.1446  12.1202

          k = 0.0050 0.0050 0.0000 (  3845 PWs)   bands (ev):

   -27.2614 -27.2092 -21.5640 -18.1453 -12.1348  -9.3636  -6.1812  -5.6685
    -5.6684  -5.4030  -5.4014  -3.1469  -3.1450  -1.9129  -1.9107   2.0034
     4.5864   4.8402   4.8414   5.3574   5.6536   6.1496   6.1526   6.4205
     7.5140   8.9010  10.1191  11.1220  11.1443  12.1214

          k = 0.0100 0.0100 0.0000 (  3843 PWs)   bands (ev):

   -27.2603 -27.2081 -21.5616 -18.1433 -12.1332  -9.3630  -6.1867  -5.6722
    -5.6718  -5.4095  -5.4032  -3.1556  -3.1483  -1.9226  -1.9139   2.0102
     4.5835   4.8466   4.8513   5.3614   5.6570   6.1508   6.1627   6.4245
     7.5176   8.9046  10.1224  11.1245  11.1433  12.1250

          k = 0.0150 0.0150 0.0000 (  3843 PWs)   bands (ev):

   -27.2585 -27.2064 -21.5576 -18.1399 -12.1305  -9.3622  -6.1959  -5.6785
    -5.6774  -5.4202  -5.4061  -3.1699  -3.1538  -1.9387  -1.9192   2.0214
     4.5789   4.8571   4.8675   5.3682   5.6628   6.1527   6.1795   6.4312
     7.5237   8.9106  10.1278  11.1285  11.1417  12.1311

          k = 0.0200 0.0200 0.0000 (  3844 PWs)   bands (ev):

   -27.2560 -27.2040 -21.5520 -18.1351 -12.1268  -9.3610  -6.2089  -5.6873
    -5.6853  -5.4349  -5.4101  -3.1897  -3.1615  -1.9610  -1.9268   2.0368
[...]
    -7.5513  -7.2467  -6.5964  -5.7196  -4.8728  -4.2124  -3.3092   2.9199
     4.4676   5.8404   7.3675   8.0714   8.3461   8.5978   9.1740   9.7854
    10.6647  11.1445  11.9103  12.0468  12.3275  13.7699

          k = 0.3200 0.1600 0.0000 (  3871 PWs)   bands (ev):

   -26.5523 -26.5315 -19.5345 -16.4343 -11.6831 -10.6921  -9.9097  -8.7721
    -7.5076  -7.2041  -6.5635  -5.6505  -4.8491  -4.1947  -3.2834   2.9283
     4.4539   5.8738   7.3627   8.0166   8.2443   8.4991   9.1050   9.7296
    10.5583  11.0298  11.8754  11.9541  12.2575  13.6630

          k = 0.3133 0.1567 0.0000 (  3864 PWs)   bands (ev):

   -26.5733 -26.5517 -19.6171 -16.5032 -11.5841 -10.6532  -9.8182  -8.7530
    -7.4630  -7.1602  -6.5301  -5.5800  -4.8246  -4.1766  -3.2568   2.9375
     4.4388   5.9039   7.3555   7.9589   8.1437   8.4010   9.0359   9.6809
    10.4556  10.9129  11.8329  11.8646  12.1927  13.5582

          k = 0.3067 0.1533 0.0000 (  3865 PWs)   bands (ev):

   -26.5945 -26.5720 -19.6982 -16.5708 -11.5038 -10.6002  -9.7257  -8.7308
    -7.4172  -7.1150  -6.4963  -5.5081  -4.7990  -4.1578  -3.2295   2.9471
     4.4226   5.9306   7.3442   7.8976   8.0467   8.3040   8.9670   9.6378
    10.3570  10.7940  11.7495  11.8135  12.1320  13.4556

          k = 0.3000 0.1500 0.0000 (  3863 PWs)   bands (ev):

   -26.6159 -26.5926 -19.7777 -16.6372 -11.4445 -10.5299  -9.6344  -8.7045
    -7.3705  -7.0687  -6.4621  -5.4353  -4.7723  -4.1385  -3.2013   2.9572
     4.4054   5.9538   7.3269   7.8317   7.9555   8.2087   8.8989   9.5984
    10.2631  10.6733  11.6498  11.7779  12.0742  13.3552

          k = 0.2933 0.1467 0.0000 (  3859 PWs)   bands (ev):

   -26.6375 -26.6133 -19.8555 -16.7023 -11.4058 -10.4419  -9.5461  -8.6729
    -7.3229  -7.0213  -6.4276  -5.3616  -4.7442  -4.1187  -3.1723   2.9674
     4.3876   5.9736   7.3020   7.7598   7.8719   8.1158   8.8325   9.5611
    10.1748  10.5513  11.5477  11.7454  12.0184  13.2571

          k = 0.2867 0.1433 0.0000 (  3855 PWs)   bands (ev):

   -26.6591 -26.6340 -19.9316 -16.7660 -11.3850 -10.3389  -9.4624  -8.6348
    -7.2745  -6.9731  -6.3928  -5.2873  -4.7144  -4.0983  -3.1426   2.9776
     4.3694   5.9901   7.2679   7.6820   7.7957   8.0260   8.7684   9.5239
    10.0930  10.4282  11.4448  11.7158  11.9640  13.1614

          k = 0.2800 0.1400 0.0000 (  3854 PWs)   bands (ev):

   -26.6808 -26.6549 -20.0061 -16.8284 -11.3784 -10.2248  -9.3844  -8.5889
    -7.2253  -6.9241  -6.3578  -5.2129  -4.6826  -4.0774  -3.1121   2.9876
     4.3509   6.0036   7.2240   7.6003   7.7242   7.9401   8.7070   9.4851
    10.0191  10.3049  11.3418  11.6894  11.9103  13.0682

          k = 0.2733 0.1367 0.0000 (  3853 PWs)   bands (ev):

   -26.7026 -26.6757 -20.0789 -16.8894 -11.3824 -10.1039  -9.3124  -8.5345
    -7.1754  -6.8744  -6.3226  -5.1389  -4.6484  -4.0559  -3.0809   2.9971
     4.3324   6.0142   7.1708   7.5169   7.6537   7.8585   8.6479   9.4428
     9.9537  10.1827  11.2391  11.6667  11.8570  12.9776

          k = 0.2667 0.1333 0.0000 (  3855 PWs)   bands (ev):

   -26.7243 -26.6965 -20.1501 -16.9491 -11.3939  -9.9802  -9.2458  -8.4712
    -7.1249  -6.8242  -6.2874  -5.0658  -4.6110  -4.0338  -3.0490   3.0059
     4.3141   6.0223   7.1094   7.4332   7.5816   7.7812   8.5906   9.3951
     9.8948  10.0661  11.1372  11.6478  11.8040  12.8897

          k = 0.2600 0.1300 0.0000 (  3855 PWs)   bands (ev):

   -26.7460 -26.7173 -20.2195 -17.0075 -11.4109  -9.8576  -9.1826  -8.3993
    -7.0738  -6.7736  -6.2521  -4.9943  -4.5699  -4.0112  -3.0164   3.0136
     4.2964   6.0281   7.0416   7.3494   7.5067   7.7073   8.5342   9.3410
     9.8300   9.9690  11.0366  11.6326  11.7514  12.8046

          k = 0.2533 0.1267 0.0000 (  3849 PWs)   bands (ev):

   -26.7676 -26.7381 -20.2872 -17.0644 -11.4318  -9.7403  -9.1194  -8.3199
    -7.0223  -6.7228  -6.2168  -4.9253  -4.5242  -3.9881  -2.9831   3.0200
     4.2796   6.0319   6.9691   7.2655   7.4292   7.6358   8.4774   9.2802
     9.7367   9.9145  10.9377  11.6197  11.7005  12.7225

          k = 0.2467 0.1233 0.0000 (  3851 PWs)   bands (ev):

   -26.7891 -26.7587 -20.3533 -17.1199 -11.4554  -9.6332  -9.0515  -8.2340
    -6.9704  -6.6717  -6.1816  -4.8596  -4.4733  -3.9644  -2.9492   3.0247
     4.2638   6.0339   6.8936   7.1813   7.3499   7.5652   8.4193   9.2137
     9.6200   9.8965  10.8411  11.6037  11.6565  12.6435

          k = 0.2400 0.1200 0.0000 (  3847 PWs)   bands (ev):

   -26.8105 -26.7791 -20.4176 -17.1740 -11.4809  -9.5409  -8.9739  -8.1431
    -6.9182  -6.6207  -6.1466  -4.7976  -4.4165  -3.9401  -2.9146   3.0274
     4.2495   6.0345   6.8164   7.0966   7.2696   7.4948   8.3587   9.1426
     9.4944   9.8988  10.7474  11.5694  11.6345  12.5680

          k = 0.2333 0.1167 0.0000 (  3843 PWs)   bands (ev):

   -26.8317 -26.7994 -20.4801 -17.2268 -11.5078  -9.4666  -8.8831  -8.0483
    -6.8658  -6.5698  -6.1118  -4.7397  -4.3537  -3.9151  -2.8795   3.0278
     4.2369   6.0337   6.7384   7.0113   7.1892   7.4239   8.2950   9.0683
     9.3654   9.9133  10.6575  11.5205  11.6305  12.4960

          k = 0.2267 0.1133 0.0000 (  3842 PWs)   bands (ev):

   -26.8527 -26.8195 -20.5410 -17.2780 -11.5356  -9.4104  -8.7785  -7.9507
    -6.8134  -6.5192  -6.0773  -4.6856  -4.2851  -3.8895  -2.8439   3.0256
     4.2263   6.0317   6.6605   6.9253   7.1093   7.3524   8.2279   8.9922
     9.2347   9.9354  10.5727  11.4678  11.6335  12.4281

          k = 0.2200 0.1100 0.0000 (  3838 PWs)   bands (ev):

   -26.8734 -26.8393 -20.6001 -17.3279 -11.5639  -9.3697  -8.6624  -7.8512
    -6.7609  -6.4689  -6.0431  -4.6347  -4.2115  -3.8632  -2.8077   3.0205
     4.2179   6.0287   6.5831   6.8387   7.0304   7.2803   8.1573   8.9152
     9.1032   9.9604  10.4952  11.4141  11.6401  12.3647

          k = 0.2133 0.1067 0.0000 (  3840 PWs)   bands (ev):

   -26.8939 -26.8589 -20.6575 -17.3764 -11.5925  -9.3410  -8.5382  -7.7505
    -6.7085  -6.4192  -6.0093  -4.5863  -4.1338  -3.8360  -2.7712   3.0121
     4.2120   6.0247   6.5068   6.7514   6.9528   7.2077   8.0834   8.8379
     8.9716   9.9824  10.4288  11.3604  11.6486  12.3066

          k = 0.2067 0.1033 0.0000 (  3841 PWs)   bands (ev):

   -26.9141 -26.8781 -20.7132 -17.4233 -11.6212  -9.3210  -8.4089  -7.6492
    -6.6564  -6.3701  -5.9760  -4.5395  -4.0532  -3.8076  -2.7342   3.0005
     4.2087   6.0197   6.4317   6.6635   6.8769   7.1349   8.0064   8.7606
     8.8405   9.9935  10.3796  11.3072  11.6578  12.2546

          k = 0.2000 0.1000 0.0000 (  3841 PWs)   bands (ev):

   -26.9339 -26.8971 -20.7671 -17.4689 -11.6498  -9.3073  -8.2770  -7.5476
    -6.6045  -6.3218  -5.9432  -4.4936  -3.9711  -3.7773  -2.6969   2.9854
     4.2081   6.0137   6.3580   6.5753   6.8029   7.0620   7.9268   8.6805
     8.7135   9.9852  10.3546  11.2550  11.6659  12.2102

          k = 0.1933 0.0967 0.0000 (  3841 PWs)   bands (ev):

   -26.9534 -26.9157 -20.8193 -17.5130 -11.6781  -9.2983  -8.1444  -7.4462
    -6.5530  -6.2744  -5.9109  -4.4480  -3.8898  -3.7434  -2.6594   2.9669
     4.2102   6.0068   6.2861   6.4869   6.7308   6.9894   7.8453   8.5705
     8.6184   9.9546  10.3550  11.2044  11.6710  12.1750

          k = 0.1867 0.0933 0.0000 (  3837 PWs)   bands (ev):

   -26.9724 -26.9339 -20.8697 -17.5556 -11.7061  -9.2927  -8.0125  -7.3451
    -6.5021  -6.2280  -5.8793  -4.4023  -3.8144  -3.7016  -2.6217   2.9449
     4.2150   5.9985   6.2159   6.3985   6.6610   6.9172   7.7622   8.4423
     8.5439   9.9072  10.3739  11.1558  11.6711  12.1508

          k = 0.1800 0.0900 0.0000 (  3835 PWs)   bands (ev):

   -26.9911 -26.9517 -20.9184 -17.5968 -11.7336  -9.2897  -7.8822  -7.2446
    -6.4517  -6.1827  -5.8483  -4.3559  -3.7531  -3.6440  -2.5838   2.9195
     4.2222   5.9886   6.1478   6.3105   6.5933   6.8457   7.6783   8.3133
     8.4731   9.8504  10.4024  11.1102  11.6645  12.1389

          k = 0.1733 0.0867 0.0000 (  3833 PWs)   bands (ev):

   -27.0093 -26.9691 -20.9653 -17.6365 -11.7605  -9.2886  -7.7545  -7.1447
    -6.4021  -6.1387  -5.8181  -4.3087  -3.7080  -3.5691  -2.5460   2.8910
     4.2318   5.9763   6.0821   6.2232   6.5278   6.7752   7.5941   8.1852
     8.4048   9.7894  10.4337  11.0683  11.6505  12.1396

          k = 0.1667 0.0833 0.0000 (  3833 PWs)   bands (ev):

   -27.0270 -26.9860 -21.0104 -17.6748 -11.7868  -9.2890  -7.6302  -7.0457
    -6.3533  -6.0959  -5.7887  -4.2604  -3.6717  -3.4845  -2.5082   2.8595
     4.2435   5.9593   6.0204   6.1374   6.4647   6.7063   7.5103   8.0584
     8.3388   9.7272  10.4631  11.0315  11.6298  12.1520

          k = 0.1600 0.0800 0.0000 (  3823 PWs)   bands (ev):

   -27.0443 -27.0024 -21.0538 -17.7116 -11.8125  -9.2905  -7.5098  -6.9476
    -6.3055  -6.0545  -5.7600  -4.2109  -3.6390  -3.3959  -2.4705   2.8252
     4.2571   5.9290   5.9694   6.0546   6.4040   6.6394   7.4275   7.9333
     8.2752   9.6654  10.4873  11.0013  11.6037  12.1740

          k = 0.1533 0.0767 0.0000 (  3821 PWs)   bands (ev):

   -27.0610 -27.0184 -21.0955 -17.7469 -11.8374  -9.2929  -7.3940  -6.8505
    -6.2586  -6.0145  -5.7322  -4.1600  -3.6079  -3.3057  -2.4332   2.7885
     4.2723   5.8779   5.9286   5.9827   6.3455   6.5752   7.3461   7.8102
     8.2140   9.6048  10.5037  10.9790  11.5741  12.2035

          k = 0.1467 0.0733 0.0000 (  3813 PWs)   bands (ev):

   -27.0772 -27.0338 -21.1353 -17.7807 -11.8615  -9.2960  -7.2832  -6.7546
    -6.2130  -5.9760  -5.7054  -4.1078  -3.5776  -3.2149  -2.3961   2.7495
     4.2889   5.8199   5.8661   5.9393   6.2894   6.5146   7.2668   7.6893
     8.1552   9.5460  10.5104  10.9657  11.5424  12.2385

          k = 0.1400 0.0700 0.0000 (  3804 PWs)   bands (ev):

   -27.0928 -27.0487 -21.1734 -17.8130 -11.8847  -9.2996  -7.1777  -6.6601
    -6.1685  -5.9389  -5.6794  -4.0542  -3.5478  -3.1242  -2.3596   2.7087
     4.3064   5.7605   5.7905   5.9097   6.2354   6.4584   7.1899   7.5710
     8.0989   9.4893  10.5073  10.9615  11.5097  12.2771

          k = 0.1333 0.0667 0.0000 (  3804 PWs)   bands (ev):

   -27.1078 -27.0630 -21.2098 -17.8439 -11.9071  -9.3036  -7.0779  -6.5673
    -6.1255  -5.9032  -5.6545  -3.9993  -3.5184  -3.0341  -2.3237   2.6663
     4.3248   5.6984   5.7168   5.8802   6.1833   6.4077   7.1158   7.4554
     8.0450   9.4349  10.4952  10.9652  11.4769  12.3182

          k = 0.1267 0.0633 0.0000 (  3808 PWs)   bands (ev):

   -27.1223 -27.0768 -21.2444 -17.8733 -11.9286  -9.3078  -6.9839  -6.4766
    -6.0838  -5.8690  -5.6305  -3.9432  -3.4894  -2.9451  -2.2885   2.6225
     4.3436   5.6283   5.6527   5.8480   6.1332   6.3631   7.0449   7.3430
     7.9937   9.3829  10.4761  10.9748  11.4445  12.3603

          k = 0.1200 0.0600 0.0000 (  3806 PWs)   bands (ev):

   -27.1361 -27.0899 -21.2772 -17.9012 -11.9492  -9.3122  -6.8957  -6.3884
    -6.0437  -5.8360  -5.6076  -3.8861  -3.4607  -2.8574  -2.2541   2.5778
     4.3628   5.5553   5.5943   5.8124   6.0849   6.3250   6.9773   7.2339
     7.9449   9.3335  10.4521  10.9881  11.4129  12.4026

          k = 0.1133 0.0567 0.0000 (  3808 PWs)   bands (ev):

   -27.1492 -27.1024 -21.3082 -17.9276 -11.9688  -9.3167  -6.8134  -6.3031
    -6.0053  -5.8043  -5.5858  -3.8283  -3.4325  -2.7713  -2.2207   2.5325
     4.3820   5.4835   5.5373   5.7741   6.0385   6.2932   6.9133   7.1285
     7.8986   9.2867  10.4252  11.0036  11.3825  12.4442

          k = 0.1067 0.0533 0.0000 (  3811 PWs)   bands (ev):

   -27.1617 -27.1144 -21.3375 -17.9525 -11.9873  -9.3212  -6.7368  -6.2215
    -5.9686  -5.7737  -5.5651  -3.7700  -3.4048  -2.6873  -2.1884   2.4867
     4.4011   5.4143   5.4806   5.7338   5.9942   6.2672   6.8530   7.0271
     7.8549   9.2425  10.3967  11.0198  11.3534  12.4781

          k = 0.1000 0.0500 0.0000 (  3814 PWs)   bands (ev):

   -27.1736 -27.1256 -21.3650 -17.9759 -12.0049  -9.3256  -6.6657  -6.1441
    -5.9336  -5.7438  -5.5455  -3.7116  -3.3778  -2.6057  -2.1573   2.4410
     4.4198   5.3481   5.4239   5.6926   5.9523   6.2461   6.7963   6.9302
     7.8137   9.2009  10.3677  11.0359  11.3258  12.4351

          k = 0.0933 0.0467 0.0000 (  3817 PWs)   bands (ev):

   -27.1847 -27.1362 -21.3908 -17.9978 -12.0214  -9.3300  -6.6001  -6.0716
    -5.9006  -5.7146  -5.5271  -3.6534  -3.3516  -2.5267  -2.1276   2.3955
     4.4381   5.2852   5.3672   5.6518   5.9131   6.2290   6.7430   6.8383
     7.7752   9.1620  10.3389  11.0514  11.2998  12.3938

          k = 0.0867 0.0433 0.0000 (  3821 PWs)   bands (ev):

   -27.1951 -27.1461 -21.4147 -18.0181 -12.0369  -9.3342  -6.5398  -6.0046
    -5.8695  -5.6857  -5.5099  -3.5958  -3.3263  -2.4508  -2.0993   2.3508
     4.4557   5.2257   5.3107   5.6123   5.8765   6.2151   6.6922   6.7527
     7.7392   9.1258  10.3110  11.0658  11.2755  12.3554

          k = 0.0800 0.0400 0.0000 (  3827 PWs)   bands (ev):

   -27.2048 -27.1554 -21.4369 -18.0370 -12.0513  -9.3382  -6.4846  -5.9439
    -5.8404  -5.6567  -5.4938  -3.5395  -3.3020  -2.3783  -2.0727   2.3070
     4.4725   5.1700   5.2546   5.5747   5.8427   6.2038   6.6394   6.6780
     7.7059   9.0923  10.2842  11.0789  11.2528  12.3199

          k = 0.0733 0.0367 0.0000 (  3835 PWs)   bands (ev):

   -27.2138 -27.1639 -21.4573 -18.0544 -12.0646  -9.3421  -6.4344  -5.8898
    -5.8134  -5.6273  -5.4791  -3.4848  -3.2790  -2.3095  -2.0477   2.2647
     4.4885   5.1182   5.1994   5.5398   5.8117   6.1943   6.5757   6.6236
     7.6752   9.0615  10.2590  11.0908  11.2319  12.2874

          k = 0.0667 0.0333 0.0000 (  3833 PWs)   bands (ev):

   -27.2220 -27.1717 -21.4760 -18.0703 -12.0767  -9.3456  -6.3890  -5.8429
    -5.7885  -5.5976  -5.4655  -3.4323  -3.2573  -2.2450  -2.0246   2.2241
     4.5036   5.0704   5.1459   5.5077   5.7836   6.1864   6.5074   6.5833
     7.6471   9.0334  10.2354  11.1013  11.2128  12.2578

          k = 0.0600 0.0300 0.0000 (  3843 PWs)   bands (ev):

   -27.2295 -27.1789 -21.4929 -18.0847 -12.0878  -9.3489  -6.3484  -5.8030
    -5.7658  -5.5676  -5.4533  -3.3826  -3.2370  -2.1850  -2.0033   2.1858
     4.5177   5.0269   5.0945   5.4787   5.7583   6.1795   6.4425   6.5496
     7.6217   9.0080  10.2137  11.1104  11.1954  12.2312

          k = 0.0533 0.0267 0.0000 (  3839 PWs)   bands (ev):

   -27.2363 -27.1852 -21.5080 -18.0975 -12.0977  -9.3519  -6.3123  -5.7698
    -5.7454  -5.5379  -5.4423  -3.3363  -3.2184  -2.1300  -1.9841   2.1500
     4.5307   4.9877   5.0462   5.4528   5.7358   6.1735   6.3830   6.5205
     7.5989   8.9852  10.1941  11.1183  11.1799  12.2076

          k = 0.0467 0.0233 0.0000 (  3843 PWs)   bands (ev):

   -27.2422 -27.1909 -21.5213 -18.1089 -12.1065  -9.3546  -6.2807  -5.7427
    -5.7273  -5.5092  -5.4326  -3.2938  -3.2016  -2.0803  -1.9669   2.1172
     4.5426   4.9529   5.0014   5.4300   5.7160   6.1682   6.3295   6.4955
     7.5787   8.9652  10.1765  11.1250  11.1662  12.1868

          k = 0.0400 0.0200 0.0000 (  3843 PWs)   bands (ev):

   -27.2474 -27.1958 -21.5328 -18.1187 -12.1141  -9.3570  -6.2536  -5.7208
    -5.7115  -5.4826  -5.4242  -3.2558  -3.1868  -2.0363  -1.9519   2.0878
     4.5534   4.9226   4.9609   5.4103   5.6990   6.1635   6.2825   6.4744
     7.5613   8.9478  10.1612  11.1305  11.1543  12.1690

          k = 0.0333 0.0167 0.0000 (  3844 PWs)   bands (ev):

   -27.2518 -27.2000 -21.5426 -18.1271 -12.1206  -9.3590  -6.2307  -5.7034
    -5.6980  -5.4588  -5.4170  -3.2226  -3.1739  -1.9983  -1.9390   2.0622
     4.5629   4.8969   4.9252   5.3937   5.6847   6.1594   6.2423   6.4570
     7.5465   8.9331  10.1481  11.1348  11.1444  12.1539

          k = 0.0267 0.0133 0.0000 (  3845 PWs)   bands (ev):

   -27.2554 -27.2034 -21.5506 -18.1339 -12.1259  -9.3607  -6.2122  -5.6899
    -5.6870  -5.4385  -5.4112  -3.1949  -3.1633  -1.9668  -1.9285   2.0407
     4.5712   4.8757   4.8950   5.3801   5.6730   6.1559   6.2090   6.4431
     7.5343   8.9211  10.1373  11.1353  11.1391  12.1417

          k = 0.0200 0.0100 0.0000 (  3844 PWs)   bands (ev):

   -27.2582 -27.2061 -21.5568 -18.1392 -12.1300  -9.3620  -6.1978  -5.6798
    -5.6784  -5.4223  -5.4067  -3.1728  -3.1549  -1.9420  -1.9203   2.0236
     4.5780   4.8593   4.8706   5.3696   5.6640   6.1530   6.1830   6.4325
     7.5249   8.9118  10.1289  11.1293  11.1414  12.1323

          k = 0.0133 0.0067 0.0000 (  3845 PWs)   bands (ev):

   -27.2602 -27.2080 -21.5613 -18.1430 -12.1329  -9.3630  -6.1875  -5.6728
    -5.6723  -5.4104  -5.4034  -3.1569  -3.1488  -1.9240  -1.9144   2.0112
     4.5831   4.8475   4.8528   5.3620   5.6575   6.1509   6.1643   6.4250
     7.5182   8.9051  10.1229  11.1248  11.1432  12.1255

          k = 0.0067 0.0033 0.0000 (  3845 PWs)   bands (ev):

   -27.2614 -27.2091 -21.5639 -18.1452 -12.1347  -9.3635  -6.1814  -5.6687
    -5.6686  -5.4032  -5.4015  -3.1472  -3.1452  -1.9132  -1.9108   2.0037
     4.5863   4.8405   4.8418   5.3575   5.6537   6.1496   6.1530   6.4206
     7.5141   8.9011  10.1193  11.1221  11.1443  12.1215

          k = 0.0000 0.0000 0.0000 (  3855 PWs)   bands (ev):

   -27.2618 -27.2095 -21.5648 -18.1460 -12.1353  -9.3637  -6.1794  -5.6673
    -5.6673  -5.4009  -5.4008  -3.1440  -3.1440  -1.9096  -1.9096   2.0011
     4.5874   4.8381   4.8381   5.3560   5.6524   6.1491   6.1492   6.4192
     7.5128   8.8998  10.1180  11.1212  11.1446  12.1202

     Writing output data file ab_f.save\

     init_run     :      7.03s CPU      4.51s WALL (       1 calls)
     electrons    :    294.38s CPU    196.79s WALL (       1 calls)

     Called by init_run:
     wfcinit      :      0.00s CPU      0.00s WALL (       1 calls)
     wfcinit:atom :      1.00s CPU      0.65s WALL (     301 calls)
     wfcinit:wfcr :     18.02s CPU     11.92s WALL (     301 calls)
     potinit      :      0.56s CPU      0.23s WALL (       1 calls)
     hinit0       :      6.31s CPU      4.11s WALL (       1 calls)

     Called by electrons:
     c_bands      :    294.38s CPU    196.79s WALL (       1 calls)
     v_of_rho     :      0.16s CPU      0.06s WALL (       1 calls)
     v_h          :      0.05s CPU      0.00s WALL (       1 calls)
     v_xc         :      0.11s CPU      0.06s WALL (       1 calls)
     newd         :      0.16s CPU      0.10s WALL (       1 calls)
     PAW_pot      :      0.41s CPU      0.17s WALL (       1 calls)

     Called by c_bands:
     init_us_2    :      0.22s CPU      0.09s WALL (     301 calls)
     cegterg      :    273.75s CPU    182.75s WALL (     433 calls)

     Called by sum_band:

     Called by *egterg:
     h_psi        :    218.91s CPU    136.64s WALL (    6945 calls)
     s_psi        :      6.73s CPU      6.30s WALL (    6945 calls)
     g_psi        :      2.94s CPU      1.59s WALL (    6211 calls)
     cdiaghg      :      8.23s CPU      8.83s WALL (    6512 calls)
     cegterg:over :      7.83s CPU     10.75s WALL (    6211 calls)
     cegterg:upda :     19.72s CPU     15.36s WALL (    6211 calls)
     cegterg:last :     23.89s CPU     10.87s WALL (    1327 calls)

     Called by h_psi:
     h_psi:pot    :    217.62s CPU    135.41s WALL (    6945 calls)
     h_psi:calbec :     14.48s CPU      6.50s WALL (    6945 calls)
     vloc_psi     :    198.83s CPU    125.67s WALL (    6945 calls)
     add_vuspsi   :      4.28s CPU      3.21s WALL (    6945 calls)

     General routines
     calbec       :     14.45s CPU      6.49s WALL (    6945 calls)
     fft          :      0.00s CPU      0.01s WALL (      13 calls)
     ffts         :      0.00s CPU      0.00s WALL (       1 calls)
     fftw         :     90.69s CPU     56.58s WALL (  224576 calls)
     interpolate  :      0.00s CPU      0.00s WALL (       1 calls)
     davcio       :      0.11s CPU      0.69s WALL (     602 calls)

     Parallel routines

     PAW routines
     PAW_pot      :      0.41s CPU      0.17s WALL (       1 calls)

     PWSCF        :   5m 4.34s CPU   3m25.67s WALL


   This run was terminated on:  17:38:16  29Nov2024            

=------------------------------------------------------------------------------=
   JOB DONE.
=------------------------------------------------------------------------------=
