
     Program BANDS v.6.4.1 starts on 29Nov2024 at 17:40:19 

     This program is part of the open-source Quantum ESPRESSO suite
     for quantum simulation of materials; please cite
         "P. Giannozzi et al., J. Phys.:Condens. Matter 21 395502 (2009);
         "P. Giannozzi et al., J. Phys.:Condens. Matter 29 465901 (2017);
          URL http://www.quantum-espresso.org", 
     in publications or presentations arising from this work. More details at
     http://www.quantum-espresso.org/quote

     Parallel version (MPI & OpenMP), running on      12 processor cores
     Number of MPI processes:                 1
     Threads/MPI process:                    12

     MPI processes distributed on     1 nodes

     Reading data from directory:
     .\ab_f.save\

     IMPORTANT: XC functional enforced from input :
     Exchange-correlation      = PBESOL ( 1  4 10  8 0 0)
     Any further DFT definition will be discarded
     Please, verify this is what you really want

               file C.pbesol-n-kjpaw_psl.1.0.0.UPF: wavefunction(s)  2S 2P renormalized
               file F.pbesol-n-kjpaw_psl.1.0.0.UPF: wavefunction(s)  2S 2P renormalized

     G-vector sticks info
     --------------------
     sticks:   dense  smooth     PW     G-vecs:    dense   smooth      PW
     Sum         583     295     91                87545    30857    5751


     Check: negative core charge=   -0.000005

     negative rho (up, down):  6.085E-04 0.000E+00
     high-symmetry point:  0.0000 0.0000 0.0000   x coordinate   0.0000
     high-symmetry point:  0.5000 0.5000 0.0000   x coordinate   0.7071
     high-symmetry point:  0.6667 0.3333 0.0000   x coordinate   0.9428
     high-symmetry point:  0.0000 0.0000 0.0000   x coordinate   1.6882

     Plottable bands (eV) written to file bands.dat.gnu
     Bands written to file bands.dat

 **************************************************************************

                    xk=(   0.00000,   0.00000,   0.00000  )

     point group C_1 (1)    
     there are  1 classes
     the character table:

       E    
A      1.00

     the symmetry operations in each class and the name of the first element:

     E        1
                                                                 

     Band symmetry, C_1 (1)     point group:

     e(  1 -  1) =    -27.26176  eV     1   --> A              
     e(  2 -  2) =    -27.20953  eV     1   --> A              
     e(  3 -  3) =    -21.56481  eV     1   --> A              
     e(  4 -  4) =    -18.14599  eV     1   --> A              
     e(  5 -  5) =    -12.13529  eV     1   --> A              
     e(  6 -  6) =     -9.36373  eV     1   --> A              
     e(  7 -  7) =     -6.17936  eV     1   --> A              
     e(  8 -  9) =     -5.66733  eV     2   -->   2 A              
     e( 10 - 11) =     -5.40085  eV     2   -->   2 A              
     e( 12 - 13) =     -3.14397  eV     2   -->   2 A              
     e( 14 - 15) =     -1.90964  eV     2   -->   2 A              
     e( 16 - 16) =      2.00115  eV     1   --> A              
     e( 17 - 17) =      4.58742  eV     1   --> A              
     e( 18 - 19) =      4.83810  eV     2   -->   2 A              
     e( 20 - 20) =      5.35604  eV     1   --> A              
     e( 21 - 21) =      5.65242  eV     1   --> A              
     e( 22 - 23) =      6.14913  eV     2   -->   2 A              
     e( 24 - 24) =      6.41918  eV     1   --> A              
     e( 25 - 25) =      7.51279  eV     1   --> A              
     e( 26 - 26) =      8.89979  eV     1   --> A              
     e( 27 - 27) =     10.11804  eV     1   --> A              
     e( 28 - 28) =     11.12116  eV     1   --> A              
     e( 29 - 29) =     11.14460  eV     1   --> A              
     e( 30 - 30) =     12.12017  eV     1   --> A              

 **************************************************************************

 **************************************************************************

                    xk=(   0.00500,   0.00500,   0.00000  )

     Band symmetry, C_1 (1)     point group:

     e(  1 -  1) =    -27.26140  eV     1   --> A              
     e(  2 -  2) =    -27.20918  eV     1   --> A              
     e(  3 -  3) =    -21.56401  eV     1   --> A              
     e(  4 -  4) =    -18.14531  eV     1   --> A              
     e(  5 -  5) =    -12.13475  eV     1   --> A              
     e(  6 -  6) =     -9.36356  eV     1   --> A              
     e(  7 -  7) =     -6.18120  eV     1   --> A              
     e(  8 -  9) =     -5.66853  eV     2   -->   2 A              
     e( 10 - 10) =     -5.40300  eV     1   --> A              
     e( 11 - 11) =     -5.40142  eV     1   --> A              
     e( 12 - 12) =     -3.14687  eV     1   --> A              
     e( 13 - 13) =     -3.14505  eV     1   --> A              
     e( 14 - 14) =     -1.91286  eV     1   --> A              
     e( 15 - 15) =     -1.91069  eV     1   --> A              
     e( 16 - 16) =      2.00342  eV     1   --> A              
     e( 17 - 17) =      4.58644  eV     1   --> A              
     e( 18 - 18) =      4.84024  eV     1   --> A              
     e( 19 - 19) =      4.84144  eV     1   --> A              
     e( 20 - 20) =      5.35739  eV     1   --> A              
     e( 21 - 21) =      5.65357  eV     1   --> A              
     e( 22 - 22) =      6.14956  eV     1   --> A              
     e( 23 - 23) =      6.15259  eV     1   --> A              
     e( 24 - 24) =      6.42049  eV     1   --> A              
     e( 25 - 25) =      7.51400  eV     1   --> A              
     e( 26 - 26) =      8.90100  eV     1   --> A              
     e( 27 - 27) =     10.11914  eV     1   --> A              
     e( 28 - 28) =     11.12199  eV     1   --> A              
     e( 29 - 29) =     11.14429  eV     1   --> A              
     e( 30 - 30) =     12.12138  eV     1   --> A              

 **************************************************************************

 **************************************************************************

                    xk=(   0.01000,   0.01000,   0.00000  )

     Band symmetry, C_1 (1)     point group:

     e(  1 -  1) =    -27.26032  eV     1   --> A              
     e(  2 -  2) =    -27.20815  eV     1   --> A              
     e(  3 -  3) =    -21.56162  eV     1   --> A              
     e(  4 -  4) =    -18.14326  eV     1   --> A              
     e(  5 -  5) =    -12.13316  eV     1   --> A              
     e(  6 -  6) =     -9.36305  eV     1   --> A              
     e(  7 -  7) =     -6.18671  eV     1   --> A              
     e(  8 -  8) =     -5.67223  eV     1   --> A              
     e(  9 -  9) =     -5.67178  eV     1   --> A              
     e( 10 - 10) =     -5.40948  eV     1   --> A              
     e( 11 - 11) =     -5.40317  eV     1   --> A              
     e( 12 - 12) =     -3.15557  eV     1   --> A              
     e( 13 - 13) =     -3.14834  eV     1   --> A              
     e( 14 - 14) =     -1.92260  eV     1   --> A              
     e( 15 - 15) =     -1.91389  eV     1   --> A              
     e( 16 - 16) =      2.01019  eV     1   --> A              
     e( 17 - 17) =      4.58354  eV     1   --> A              
     e( 18 - 18) =      4.84658  eV     1   --> A              
     e( 19 - 19) =      4.85133  eV     1   --> A              
     e( 20 - 20) =      5.36145  eV     1   --> A              
     e( 21 - 21) =      5.65703  eV     1   --> A              
     e( 22 - 22) =      6.15075  eV     1   --> A              
     e( 23 - 23) =      6.16274  eV     1   --> A              
     e( 24 - 24) =      6.42446  eV     1   --> A              
     e( 25 - 25) =      7.51764  eV     1   --> A              
     e( 26 - 26) =      8.90460  eV     1   --> A              
     e( 27 - 27) =     10.12241  eV     1   --> A              
     e( 28 - 28) =     11.12445  eV     1   --> A              
     e( 29 - 29) =     11.14332  eV     1   --> A              
     e( 30 - 30) =     12.12500  eV     1   --> A              

 **************************************************************************

 **************************************************************************

                    xk=(   0.01500,   0.01500,   0.00000  )

     Band symmetry, C_1 (1)     point group:

     e(  1 -  1) =    -27.25852  eV     1   --> A              
     e(  2 -  2) =    -27.20644  eV     1   --> A              
     e(  3 -  3) =    -21.55762  eV     1   --> A              
     e(  4 -  4) =    -18.13985  eV     1   --> A              
     e(  5 -  5) =    -12.13051  eV     1   --> A              
     e(  6 -  6) =     -9.36220  eV     1   --> A              
     e(  7 -  7) =     -6.19592  eV     1   --> A              
     e(  8 -  8) =     -5.67846  eV     1   --> A              
     e(  9 -  9) =     -5.67738  eV     1   --> A              
     e( 10 - 10) =     -5.42018  eV     1   --> A              
     e( 11 - 11) =     -5.40606  eV     1   --> A              
     e( 12 - 12) =     -3.16993  eV     1   --> A              
     e( 13 - 13) =     -3.15383  eV     1   --> A              
     e( 14 - 14) =     -1.93871  eV     1   --> A              
     e( 15 - 15) =     -1.91924  eV     1   --> A              
     e( 16 - 16) =      2.02136  eV     1   --> A              
     e( 17 - 17) =      4.57891  eV     1   --> A              
     e( 18 - 18) =      4.85712  eV     1   --> A              
     e( 19 - 19) =      4.86750  eV     1   --> A              
     e( 20 - 20) =      5.36821  eV     1   --> A              
     e( 21 - 21) =      5.66282  eV     1   --> A              
     e( 22 - 22) =      6.15272  eV     1   --> A              
     e( 23 - 23) =      6.17952  eV     1   --> A              
     e( 24 - 24) =      6.43115  eV     1   --> A              
     e( 25 - 25) =      7.52371  eV     1   --> A              
     e( 26 - 26) =      8.91059  eV     1   --> A              
     e( 27 - 27) =     10.12783  eV     1   --> A              
     e( 28 - 28) =     11.12854  eV     1   --> A              
     e( 29 - 29) =     11.14170  eV     1   --> A              
     e( 30 - 30) =     12.13105  eV     1   --> A              

 **************************************************************************

 **************************************************************************

                    xk=(   0.02000,   0.02000,   0.00000  )

     Band symmetry, C_1 (1)     point group:

     e(  1 -  1) =    -27.25599  eV     1   --> A              
     e(  2 -  2) =    -27.20404  eV     1   --> A              
     e(  3 -  3) =    -21.55202  eV     1   --> A              
     e(  4 -  4) =    -18.13509  eV     1   --> A              
     e(  5 -  5) =    -12.12680  eV     1   --> A              
     e(  6 -  6) =     -9.36101  eV     1   --> A              
     e(  7 -  7) =     -6.20886  eV     1   --> A              
     e(  8 -  8) =     -5.68734  eV     1   --> A              
     e(  9 -  9) =     -5.68528  eV     1   --> A              
     e( 10 - 10) =     -5.43491  eV     1   --> A              
     e( 11 - 11) =     -5.41010  eV     1   --> A              
     e( 12 - 12) =     -3.18975  eV     1   --> A              
     e( 13 - 13) =     -3.16148  eV     1   --> A              
     e( 14 - 14) =     -1.96102  eV     1   --> A              
     e( 15 - 15) =     -1.92676  eV     1   --> A              
     e( 16 - 16) =      2.03679  eV     1   --> A              
     e( 17 - 17) =      4.57277  eV     1   --> A              
     e( 18 - 18) =      4.87178  eV     1   --> A              
     e( 19 - 19) =      4.88962  eV     1   --> A              
     e( 20 - 20) =      5.37769  eV     1   --> A              
     e( 21 - 21) =      5.67094  eV     1   --> A              
     e( 22 - 22) =      6.15548  eV     1   --> A              
     e( 23 - 23) =      6.20280  eV     1   --> A              
     e( 24 - 24) =      6.44070  eV     1   --> A              
     e( 25 - 25) =      7.53219  eV     1   --> A              
     e( 26 - 26) =      8.91900  eV     1   --> A              
     e( 27 - 27) =     10.13541  eV     1   --> A              
     e( 28 - 28) =     11.13412  eV     1   --> A              
     e( 29 - 29) =     11.13950  eV     1   --> A              
     e( 30 - 30) =     12.13955  eV     1   --> A              

 **************************************************************************

 **************************************************************************

                    xk=(   0.02500,   0.02500,   0.00000  )

     Band symmetry, C_1 (1)     point group:

     e(  1 -  1) =    -27.25276  eV     1   --> A              
     e(  2 -  2) =    -27.20096  eV     1   --> A              
     e(  3 -  3) =    -21.54483  eV     1   --> A              
     e(  4 -  4) =    -18.12895  eV     1   --> A              
     e(  5 -  5) =    -12.12203  eV     1   --> A              
     e(  6 -  6) =     -9.35950  eV     1   --> A              
     e(  7 -  7) =     -6.22556  eV     1   --> A              
     e(  8 -  8) =     -5.69907  eV     1   --> A              
     e(  9 -  9) =     -5.69550  eV     1   --> A              
     e( 10 - 10) =     -5.45343  eV     1   --> A              
     e( 11 - 11) =     -5.41526  eV     1   --> A              
     e( 12 - 12) =     -3.21471  eV     1   --> A              
     e( 13 - 13) =     -3.17129  eV     1   --> A              
     e( 14 - 14) =     -1.98930  eV     1   --> A              
     e( 15 - 15) =     -1.93645  eV     1   --> A              
     e( 16 - 16) =      2.05626  eV     1   --> A              
     e( 17 - 17) =      4.56535  eV     1   --> A              
     e( 18 - 18) =      4.89047  eV     1   --> A              
     e( 19 - 19) =      4.91726  eV     1   --> A              
     e( 20 - 20) =      5.38990  eV     1   --> A              
     e( 21 - 21) =      5.68142  eV     1   --> A              
     e( 22 - 22) =      6.15901  eV     1   --> A              
     e( 23 - 23) =      6.23231  eV     1   --> A              
     e( 24 - 24) =      6.45329  eV     1   --> A              
     e( 25 - 25) =      7.54310  eV     1   --> A              
     e( 26 - 26) =      8.92980  eV     1   --> A              
     e( 27 - 27) =     10.14511  eV     1   --> A              
     e( 28 - 28) =     11.13583  eV     1   --> A              
     e( 29 - 29) =     11.14205  eV     1   --> A              
     e( 30 - 30) =     12.15054  eV     1   --> A              

 **************************************************************************

 **************************************************************************

                    xk=(   0.03000,   0.03000,   0.00000  )

     Band symmetry, C_1 (1)     point group:

     e(  1 -  1) =    -27.24881  eV     1   --> A              
     e(  2 -  2) =    -27.19720  eV     1   --> A              
     e(  3 -  3) =    -21.53603  eV     1   --> A              
     e(  4 -  4) =    -18.12145  eV     1   --> A              
     e(  5 -  5) =    -12.11621  eV     1   --> A              
     e(  6 -  6) =     -9.35767  eV     1   --> A              
     e(  7 -  7) =     -6.24607  eV     1   --> A              
     e(  8 -  8) =     -5.71395  eV     1   --> A              
     e(  9 -  9) =     -5.70808  eV     1   --> A              
     e( 10 - 10) =     -5.47535  eV     1   --> A              
     e( 11 - 11) =     -5.42152  eV     1   --> A              
     e( 12 - 12) =     -3.24446  eV     1   --> A              
     e( 13 - 13) =     -3.18319  eV     1   --> A              
     e( 14 - 14) =     -2.02326  eV     1   --> A              
     e( 15 - 15) =     -1.94832  eV     1   --> A              
     e( 16 - 16) =      2.07951  eV     1   --> A              
     e( 17 - 17) =      4.55685  eV     1   --> A              
     e( 18 - 18) =      4.91308  eV     1   --> A              
     e( 19 - 19) =      4.94999  eV     1   --> A              
     e( 20 - 20) =      5.40487  eV     1   --> A              
     e( 21 - 21) =      5.69431  eV     1   --> A              
     e( 22 - 22) =      6.16334  eV     1   --> A              
     e( 23 - 23) =      6.26772  eV     1   --> A              
     e( 24 - 24) =      6.46921  eV     1   --> A              
     e( 25 - 25) =      7.55642  eV     1   --> A              
     e( 26 - 26) =      8.94301  eV     1   --> A              
     e( 27 - 27) =     10.15690  eV     1   --> A              
     e( 28 - 28) =     11.13204  eV     1   --> A              
     e( 29 - 29) =     11.15091  eV     1   --> A              
     e( 30 - 30) =     12.16404  eV     1   --> A              

 **************************************************************************

 **************************************************************************

                    xk=(   0.03500,   0.03500,   0.00000  )

     Band symmetry, C_1 (1)     point group:

     e(  1 -  1) =    -27.24415  eV     1   --> A              
     e(  2 -  2) =    -27.19277  eV     1   --> A              
     e(  3 -  3) =    -21.52565  eV     1   --> A              
     e(  4 -  4) =    -18.11260  eV     1   --> A              
     e(  5 -  5) =    -12.10934  eV     1   --> A              
     e(  6 -  6) =     -9.35553  eV     1   --> A              
     e(  7 -  7) =     -6.27045  eV     1   --> A              
     e(  8 -  8) =     -5.73241  eV     1   --> A              
     e(  9 -  9) =     -5.72303  eV     1   --> A              
     e( 10 - 10) =     -5.50019  eV     1   --> A              
     e( 11 - 11) =     -5.42885  eV     1   --> A              
     e( 12 - 12) =     -3.27861  eV     1   --> A              
     e( 13 - 13) =     -3.19718  eV     1   --> A              
     e( 14 - 14) =     -2.06256  eV     1   --> A              
     e( 15 - 15) =     -1.96240  eV     1   --> A              
     e( 16 - 16) =      2.10628  eV     1   --> A              
     e( 17 - 17) =      4.54745  eV     1   --> A              
     e( 18 - 18) =      4.93946  eV     1   --> A              
     e( 19 - 19) =      4.98732  eV     1   --> A              
     e( 20 - 20) =      5.42262  eV     1   --> A              
     e( 21 - 21) =      5.70963  eV     1   --> A              
     e( 22 - 22) =      6.16851  eV     1   --> A              
     e( 23 - 23) =      6.30844  eV     1   --> A              
     e( 24 - 24) =      6.48892  eV     1   --> A              
     e( 25 - 25) =      7.57214  eV     1   --> A              
     e( 26 - 26) =      8.95864  eV     1   --> A              
     e( 27 - 27) =     10.17075  eV     1   --> A              
     e( 28 - 28) =     11.12722  eV     1   --> A              
     e( 29 - 29) =     11.16153  eV     1   --> A              
     e( 30 - 30) =     12.18008  eV     1   --> A              

 **************************************************************************

 **************************************************************************

                    xk=(   0.04000,   0.04000,   0.00000  )

     Band symmetry, C_1 (1)     point group:

     e(  1 -  1) =    -27.23879  eV     1   --> A              
     e(  2 -  2) =    -27.18766  eV     1   --> A              
     e(  3 -  3) =    -21.51365  eV     1   --> A              
     e(  4 -  4) =    -18.10237  eV     1   --> A              
     e(  5 -  5) =    -12.10144  eV     1   --> A              
     e(  6 -  6) =     -9.35308  eV     1   --> A              
     e(  7 -  7) =     -6.29873  eV     1   --> A              
     e(  8 -  8) =     -5.75498  eV     1   --> A              
     e(  9 -  9) =     -5.74036  eV     1   --> A              
     e( 10 - 10) =     -5.52733  eV     1   --> A              
     e( 11 - 11) =     -5.43720  eV     1   --> A              
     e( 12 - 12) =     -3.31670  eV     1   --> A              
     e( 13 - 13) =     -3.21319  eV     1   --> A              
     e( 14 - 14) =     -2.10684  eV     1   --> A              
     e( 15 - 15) =     -1.97866  eV     1   --> A              
     e( 16 - 16) =      2.13625  eV     1   --> A              
     e( 17 - 17) =      4.53731  eV     1   --> A              
     e( 18 - 18) =      4.96945  eV     1   --> A              
     e( 19 - 19) =      5.02877  eV     1   --> A              
     e( 20 - 20) =      5.44319  eV     1   --> A              
     e( 21 - 21) =      5.72743  eV     1   --> A              
     e( 22 - 22) =      6.17455  eV     1   --> A              
     e( 23 - 23) =      6.35368  eV     1   --> A              
     e( 24 - 24) =      6.51315  eV     1   --> A              
     e( 25 - 25) =      7.59027  eV     1   --> A              
     e( 26 - 26) =      8.97669  eV     1   --> A              
     e( 27 - 27) =     10.18662  eV     1   --> A              
     e( 28 - 28) =     11.12141  eV     1   --> A              
     e( 29 - 29) =     11.17380  eV     1   --> A              
     e( 30 - 30) =     12.19871  eV     1   --> A              

 **************************************************************************

 **************************************************************************

                    xk=(   0.04500,   0.04500,   0.00000  )

     Band symmetry, C_1 (1)     point group:

     e(  1 -  1) =    -27.23273  eV     1   --> A              
     e(  2 -  2) =    -27.18190  eV     1   --> A              
     e(  3 -  3) =    -21.50006  eV     1   --> A              
     e(  4 -  4) =    -18.09080  eV     1   --> A              
     e(  5 -  5) =    -12.09250  eV     1   --> A              
     e(  6 -  6) =     -9.35035  eV     1   --> A              
     e(  7 -  7) =     -6.33099  eV     1   --> A              
     e(  8 -  8) =     -5.78230  eV     1   --> A              
     e(  9 -  9) =     -5.76009  eV     1   --> A              
     e( 10 - 10) =     -5.55609  eV     1   --> A              
     e( 11 - 11) =     -5.44656  eV     1   --> A              
     e( 12 - 12) =     -3.35827  eV     1   --> A              
     e( 13 - 13) =     -3.23119  eV     1   --> A              
     e( 14 - 14) =     -2.15572  eV     1   --> A              
     e( 15 - 15) =     -1.99709  eV     1   --> A              
     e( 16 - 16) =      2.16912  eV     1   --> A              
     e( 17 - 17) =      4.52653  eV     1   --> A              
     e( 18 - 18) =      5.00283  eV     1   --> A              
     e( 19 - 19) =      5.07380  eV     1   --> A              
     e( 20 - 20) =      5.46663  eV     1   --> A              
     e( 21 - 21) =      5.74775  eV     1   --> A              
     e( 22 - 22) =      6.18157  eV     1   --> A              
     e( 23 - 23) =      6.40206  eV     1   --> A              
     e( 24 - 24) =      6.54307  eV     1   --> A              
     e( 25 - 25) =      7.61079  eV     1   --> A              
     e( 26 - 26) =      8.99716  eV     1   --> A              
     e( 27 - 27) =     10.20443  eV     1   --> A              
     e( 28 - 28) =     11.11455  eV     1   --> A              
     e( 29 - 29) =     11.18766  eV     1   --> A              
     e( 30 - 30) =     12.21994  eV     1   --> A              

 **************************************************************************

 **************************************************************************

                    xk=(   0.05000,   0.05000,   0.00000  )

     Band symmetry, C_1 (1)     point group:

     e(  1 -  1) =    -27.22598  eV     1   --> A              
     e(  2 -  2) =    -27.17548  eV     1   --> A              
     e(  3 -  3) =    -21.48487  eV     1   --> A              
     e(  4 -  4) =    -18.07786  eV     1   --> A              
     e(  5 -  5) =    -12.08254  eV     1   --> A              
     e(  6 -  6) =     -9.34735  eV     1   --> A              
     e(  7 -  7) =     -6.36728  eV     1   --> A              
     e(  8 -  8) =     -5.81500  eV     1   --> A              
     e(  9 -  9) =     -5.78220  eV     1   --> A              
     e( 10 - 10) =     -5.58572  eV     1   --> A              
     e( 11 - 11) =     -5.45687  eV     1   --> A              
     e( 12 - 12) =     -3.40280  eV     1   --> A              
     e( 13 - 13) =     -3.25113  eV     1   --> A              
     e( 14 - 14) =     -2.20881  eV     1   --> A              
     e( 15 - 15) =     -2.01767  eV     1   --> A              
     e( 16 - 16) =      2.20456  eV     1   --> A              
     e( 17 - 17) =      4.51524  eV     1   --> A              
     e( 18 - 18) =      5.03943  eV     1   --> A              
     e( 19 - 19) =      5.12187  eV     1   --> A              
     e( 20 - 20) =      5.49298  eV     1   --> A              
     e( 21 - 21) =      5.77063  eV     1   --> A              
     e( 22 - 22) =      6.18969  eV     1   --> A              
     e( 23 - 23) =      6.45161  eV     1   --> A              
     e( 24 - 24) =      6.58058  eV     1   --> A              
     e( 25 - 25) =      7.63370  eV     1   --> A              
     e( 26 - 26) =      9.02006  eV     1   --> A              
     e( 27 - 27) =     10.22412  eV     1   --> A              
     e( 28 - 28) =     11.10660  eV     1   --> A              
     e( 29 - 29) =     11.20314  eV     1   --> A              
     e( 30 - 30) =     12.24382  eV     1   --> A              

 **************************************************************************

 **************************************************************************

                    xk=(   0.05500,   0.05500,   0.00000  )

     Band symmetry, C_1 (1)     point group:

     e(  1 -  1) =    -27.21855  eV     1   --> A              
     e(  2 -  2) =    -27.16841  eV     1   --> A              
     e(  3 -  3) =    -21.46809  eV     1   --> A              
     e(  4 -  4) =    -18.06357  eV     1   --> A              
     e(  5 -  5) =    -12.07156  eV     1   --> A              
     e(  6 -  6) =     -9.34410  eV     1   --> A              
     e(  7 -  7) =     -6.40768  eV     1   --> A              
     e(  8 -  8) =     -5.85360  eV     1   --> A              
     e(  9 -  9) =     -5.80673  eV     1   --> A              
     e( 10 - 10) =     -5.61565  eV     1   --> A              
     e( 11 - 11) =     -5.46812  eV     1   --> A              
     e( 12 - 12) =     -3.44981  eV     1   --> A              
     e( 13 - 13) =     -3.27297  eV     1   --> A              
     e( 14 - 14) =     -2.26572  eV     1   --> A              
     e( 15 - 15) =     -2.04038  eV     1   --> A              
     e( 16 - 16) =      2.24225  eV     1   --> A              
     e( 17 - 17) =      4.50351  eV     1   --> A              
     e( 18 - 18) =      5.07896  eV     1   --> A              
     e( 19 - 19) =      5.17239  eV     1   --> A              
     e( 20 - 20) =      5.52229  eV     1   --> A              
     e( 21 - 21) =      5.79613  eV     1   --> A              
     e( 22 - 22) =      6.19904  eV     1   --> A              
     e( 23 - 23) =      6.49991  eV     1   --> A              
     e( 24 - 24) =      6.62785  eV     1   --> A              
     e( 25 - 25) =      7.65899  eV     1   --> A              
     e( 26 - 26) =      9.04539  eV     1   --> A              
     e( 27 - 27) =     10.24558  eV     1   --> A              
     e( 28 - 28) =     11.09749  eV     1   --> A              
     e( 29 - 29) =     11.22016  eV     1   --> A              
     e( 30 - 30) =     12.27034  eV     1   --> A              

 **************************************************************************

 **************************************************************************

                    xk=(   0.06000,   0.06000,   0.00000  )

     Band symmetry, C_1 (1)     point group:

     e(  1 -  1) =    -27.21044  eV     1   --> A              
     e(  2 -  2) =    -27.16071  eV     1   --> A              
     e(  3 -  3) =    -21.44971  eV     1   --> A              
     e(  4 -  4) =    -18.04792  eV     1   --> A              
     e(  5 -  5) =    -12.05958  eV     1   --> A              
     e(  6 -  6) =     -9.34061  eV     1   --> A              
     e(  7 -  7) =     -6.45224  eV     1   --> A              
     e(  8 -  8) =     -5.89832  eV     1   --> A              
     e(  9 -  9) =     -5.83366  eV     1   --> A              
     e( 10 - 10) =     -5.64548  eV     1   --> A              
     e( 11 - 11) =     -5.48023  eV     1   --> A              
     e( 12 - 12) =     -3.49879  eV     1   --> A              
     e( 13 - 13) =     -3.29665  eV     1   --> A              
     e( 14 - 14) =     -2.32602  eV     1   --> A              
     e( 15 - 15) =     -2.06514  eV     1   --> A              
     e( 16 - 16) =      2.28190  eV     1   --> A              
     e( 17 - 17) =      4.49149  eV     1   --> A              
     e( 18 - 18) =      5.12120  eV     1   --> A              
     e( 19 - 19) =      5.22481  eV     1   --> A              
     e( 20 - 20) =      5.55457  eV     1   --> A              
     e( 21 - 21) =      5.82428  eV     1   --> A              
     e( 22 - 22) =      6.20988  eV     1   --> A              
     e( 23 - 23) =      6.54561  eV     1   --> A              
     e( 24 - 24) =      6.68608  eV     1   --> A              
     e( 25 - 25) =      7.68665  eV     1   --> A              
     e( 26 - 26) =      9.07318  eV     1   --> A              
     e( 27 - 27) =     10.26874  eV     1   --> A              
     e( 28 - 28) =     11.08720  eV     1   --> A              
     e( 29 - 29) =     11.23874  eV     1   --> A              
     e( 30 - 30) =     12.29953  eV     1   --> A              

 **************************************************************************

 **************************************************************************

                    xk=(   0.06500,   0.06500,   0.00000  )

     Band symmetry, C_1 (1)     point group:

     e(  1 -  1) =    -27.20168  eV     1   --> A              
     e(  2 -  2) =    -27.15236  eV     1   --> A              
     e(  3 -  3) =    -21.42973  eV     1   --> A              
     e(  4 -  4) =    -18.03091  eV     1   --> A              
     e(  5 -  5) =    -12.04660  eV     1   --> A              
     e(  6 -  6) =     -9.33691  eV     1   --> A              
     e(  7 -  7) =     -6.50103  eV     1   --> A              
     e(  8 -  8) =     -5.94915  eV     1   --> A              
     e(  9 -  9) =     -5.86300  eV     1   --> A              
     e( 10 - 10) =     -5.67511  eV     1   --> A              
     e( 11 - 11) =     -5.49320  eV     1   --> A              
     e( 12 - 12) =     -3.54928  eV     1   --> A              
     e( 13 - 13) =     -3.32212  eV     1   --> A              
     e( 14 - 14) =     -2.38933  eV     1   --> A              
     e( 15 - 15) =     -2.09191  eV     1   --> A              
     e( 16 - 16) =      2.32320  eV     1   --> A              
     e( 17 - 17) =      4.47921  eV     1   --> A              
     e( 18 - 18) =      5.16588  eV     1   --> A              
     e( 19 - 19) =      5.27856  eV     1   --> A              
     e( 20 - 20) =      5.58978  eV     1   --> A              
     e( 21 - 21) =      5.85512  eV     1   --> A              
     e( 22 - 22) =      6.22241  eV     1   --> A              
     e( 23 - 23) =      6.58922  eV     1   --> A              
     e( 24 - 24) =      6.75447  eV     1   --> A              
     e( 25 - 25) =      7.71668  eV     1   --> A              
     e( 26 - 26) =      9.10342  eV     1   --> A              
     e( 27 - 27) =     10.29343  eV     1   --> A              
     e( 28 - 28) =     11.07569  eV     1   --> A              
     e( 29 - 29) =     11.25884  eV     1   --> A              
     e( 30 - 30) =     12.33138  eV     1   --> A              

 **************************************************************************

 **************************************************************************

                    xk=(   0.07000,   0.07000,   0.00000  )

     Band symmetry, C_1 (1)     point group:

     e(  1 -  1) =    -27.19226  eV     1   --> A              
     e(  2 -  2) =    -27.14340  eV     1   --> A              
     e(  3 -  3) =    -21.40816  eV     1   --> A              
     e(  4 -  4) =    -18.01256  eV     1   --> A              
     e(  5 -  5) =    -12.03264  eV     1   --> A              
     e(  6 -  6) =     -9.33302  eV     1   --> A              
     e(  7 -  7) =     -6.55412  eV     1   --> A              
     e(  8 -  8) =     -6.00580  eV     1   --> A              
     e(  9 -  9) =     -5.89475  eV     1   --> A              
     e( 10 - 10) =     -5.70464  eV     1   --> A              
     e( 11 - 11) =     -5.50698  eV     1   --> A              
     e( 12 - 12) =     -3.60081  eV     1   --> A              
     e( 13 - 13) =     -3.34936  eV     1   --> A              
     e( 14 - 14) =     -2.45525  eV     1   --> A              
     e( 15 - 15) =     -2.12059  eV     1   --> A              
     e( 16 - 16) =      2.36589  eV     1   --> A              
     e( 17 - 17) =      4.46678  eV     1   --> A              
     e( 18 - 18) =      5.21271  eV     1   --> A              
     e( 19 - 19) =      5.33315  eV     1   --> A              
     e( 20 - 20) =      5.62782  eV     1   --> A              
     e( 21 - 21) =      5.88868  eV     1   --> A              
     e( 22 - 22) =      6.23694  eV     1   --> A              
     e( 23 - 23) =      6.63225  eV     1   --> A              
     e( 24 - 24) =      6.83129  eV     1   --> A              
     e( 25 - 25) =      7.74906  eV     1   --> A              
     e( 26 - 26) =      9.13613  eV     1   --> A              
     e( 27 - 27) =     10.31949  eV     1   --> A              
     e( 28 - 28) =     11.06299  eV     1   --> A              
     e( 29 - 29) =     11.28040  eV     1   --> A              
     e( 30 - 30) =     12.36590  eV     1   --> A              

 **************************************************************************

 **************************************************************************

                    xk=(   0.07500,   0.07500,   0.00000  )

     Band symmetry, C_1 (1)     point group:

     e(  1 -  1) =    -27.18219  eV     1   --> A              
     e(  2 -  2) =    -27.13382  eV     1   --> A              
     e(  3 -  3) =    -21.38499  eV     1   --> A              
     e(  4 -  4) =    -17.99284  eV     1   --> A              
     e(  5 -  5) =    -12.01771  eV     1   --> A              
     e(  6 -  6) =     -9.32898  eV     1   --> A              
     e(  7 -  7) =     -6.61156  eV     1   --> A              
     e(  8 -  8) =     -6.06781  eV     1   --> A              
     e(  9 -  9) =     -5.92890  eV     1   --> A              
     e( 10 - 10) =     -5.73431  eV     1   --> A              
     e( 11 - 11) =     -5.52154  eV     1   --> A              
     e( 12 - 12) =     -3.65296  eV     1   --> A              
     e( 13 - 13) =     -3.37829  eV     1   --> A              
     e( 14 - 14) =     -2.52336  eV     1   --> A              
     e( 15 - 15) =     -2.15111  eV     1   --> A              
     e( 16 - 16) =      2.40972  eV     1   --> A              
     e( 17 - 17) =      4.45430  eV     1   --> A              
     e( 18 - 18) =      5.26145  eV     1   --> A              
     e( 19 - 19) =      5.38822  eV     1   --> A              
     e( 20 - 20) =      5.66844  eV     1   --> A              
     e( 21 - 21) =      5.92500  eV     1   --> A              
     e( 22 - 22) =      6.25384  eV     1   --> A              
     e( 23 - 23) =      6.67603  eV     1   --> A              
     e( 24 - 24) =      6.91495  eV     1   --> A              
     e( 25 - 25) =      7.78378  eV     1   --> A              
     e( 26 - 26) =      9.17133  eV     1   --> A              
     e( 27 - 27) =     10.34673  eV     1   --> A              
     e( 28 - 28) =     11.04918  eV     1   --> A              
     e( 29 - 29) =     11.30339  eV     1   --> A              
     e( 30 - 30) =     12.40307  eV     1   --> A              

 **************************************************************************

 **************************************************************************

                    xk=(   0.08000,   0.08000,   0.00000  )

     Band symmetry, C_1 (1)     point group:

     e(  1 -  1) =    -27.17149  eV     1   --> A              
     e(  2 -  2) =    -27.12364  eV     1   --> A              
     e(  3 -  3) =    -21.36023  eV     1   --> A              
     e(  4 -  4) =    -17.97178  eV     1   --> A              
     e(  5 -  5) =    -12.00183  eV     1   --> A              
     e(  6 -  6) =     -9.32482  eV     1   --> A              
     e(  7 -  7) =     -6.67343  eV     1   --> A              
     e(  8 -  8) =     -6.13469  eV     1   --> A              
     e(  9 -  9) =     -5.96542  eV     1   --> A              
     e( 10 - 10) =     -5.76440  eV     1   --> A              
     e( 11 - 11) =     -5.53686  eV     1   --> A              
     e( 12 - 12) =     -3.70537  eV     1   --> A              
     e( 13 - 13) =     -3.40891  eV     1   --> A              
     e( 14 - 14) =     -2.59331  eV     1   --> A              
     e( 15 - 15) =     -2.18336  eV     1   --> A              
     e( 16 - 16) =      2.45443  eV     1   --> A              
     e( 17 - 17) =      4.44183  eV     1   --> A              
     e( 18 - 18) =      5.31176  eV     1   --> A              
     e( 19 - 19) =      5.44345  eV     1   --> A              
     e( 20 - 20) =      5.71124  eV     1   --> A              
     e( 21 - 21) =      5.96410  eV     1   --> A              
     e( 22 - 22) =      6.27347  eV     1   --> A              
     e( 23 - 23) =      6.72140  eV     1   --> A              
     e( 24 - 24) =      7.00425  eV     1   --> A              
     e( 25 - 25) =      7.82084  eV     1   --> A              
     e( 26 - 26) =      9.20901  eV     1   --> A              
     e( 27 - 27) =     10.37486  eV     1   --> A              
     e( 28 - 28) =     11.03435  eV     1   --> A              
     e( 29 - 29) =     11.32773  eV     1   --> A              
     e( 30 - 30) =     12.44279  eV     1   --> A              

 **************************************************************************

 **************************************************************************

                    xk=(   0.08500,   0.08500,   0.00000  )

     Band symmetry, C_1 (1)     point group:

     e(  1 -  1) =    -27.16017  eV     1   --> A              
     e(  2 -  2) =    -27.11286  eV     1   --> A              
     e(  3 -  3) =    -21.33387  eV     1   --> A              
     e(  4 -  4) =    -17.94936  eV     1   --> A              
     e(  5 -  5) =    -11.98501  eV     1   --> A              
     e(  6 -  6) =     -9.32057  eV     1   --> A              
     e(  7 -  7) =     -6.73979  eV     1   --> A              
     e(  8 -  8) =     -6.20591  eV     1   --> A              
     e(  9 -  9) =     -6.00430  eV     1   --> A              
     e( 10 - 10) =     -5.79518  eV     1   --> A              
     e( 11 - 11) =     -5.55295  eV     1   --> A              
     e( 12 - 12) =     -3.75769  eV     1   --> A              
     e( 13 - 13) =     -3.44120  eV     1   --> A              
     e( 14 - 14) =     -2.66470  eV     1   --> A              
     e( 15 - 15) =     -2.21727  eV     1   --> A              
     e( 16 - 16) =      2.49981  eV     1   --> A              
     e( 17 - 17) =      4.42947  eV     1   --> A              
     e( 18 - 18) =      5.36334  eV     1   --> A              
     e( 19 - 19) =      5.49871  eV     1   --> A              
     e( 20 - 20) =      5.75567  eV     1   --> A              
     e( 21 - 21) =      6.00598  eV     1   --> A              
     e( 22 - 22) =      6.29631  eV     1   --> A              
     e( 23 - 23) =      6.76887  eV     1   --> A              
     e( 24 - 24) =      7.09831  eV     1   --> A              
     e( 25 - 25) =      7.86022  eV     1   --> A              
     e( 26 - 26) =      9.24920  eV     1   --> A              
     e( 27 - 27) =     10.40351  eV     1   --> A              
     e( 28 - 28) =     11.01867  eV     1   --> A              
     e( 29 - 29) =     11.35332  eV     1   --> A              
     e( 30 - 30) =     12.47771  eV     1   --> A              

 **************************************************************************

 **************************************************************************

                    xk=(   0.09000,   0.09000,   0.00000  )

     Band symmetry, C_1 (1)     point group:

     e(  1 -  1) =    -27.14825  eV     1   --> A              
     e(  2 -  2) =    -27.10151  eV     1   --> A              
     e(  3 -  3) =    -21.30592  eV     1   --> A              
     e(  4 -  4) =    -17.92560  eV     1   --> A              
     e(  5 -  5) =    -11.96728  eV     1   --> A              
     e(  6 -  6) =     -9.31628  eV     1   --> A              
     e(  7 -  7) =     -6.81067  eV     1   --> A              
     e(  8 -  8) =     -6.28096  eV     1   --> A              
     e(  9 -  9) =     -6.04548  eV     1   --> A              
     e( 10 - 10) =     -5.82686  eV     1   --> A              
     e( 11 - 11) =     -5.56978  eV     1   --> A              
     e( 12 - 12) =     -3.80963  eV     1   --> A              
     e( 13 - 13) =     -3.47515  eV     1   --> A              
     e( 14 - 14) =     -2.73716  eV     1   --> A              
     e( 15 - 15) =     -2.25269  eV     1   --> A              
     e( 16 - 16) =      2.54565  eV     1   --> A              
     e( 17 - 17) =      4.41731  eV     1   --> A              
     e( 18 - 18) =      5.41593  eV     1   --> A              
     e( 19 - 19) =      5.55402  eV     1   --> A              
     e( 20 - 20) =      5.80107  eV     1   --> A              
     e( 21 - 21) =      6.05063  eV     1   --> A              
     e( 22 - 22) =      6.32284  eV     1   --> A              
     e( 23 - 23) =      6.81874  eV     1   --> A              
     e( 24 - 24) =      7.19650  eV     1   --> A              
     e( 25 - 25) =      7.90191  eV     1   --> A              
     e( 26 - 26) =      9.29192  eV     1   --> A              
     e( 27 - 27) =     10.43225  eV     1   --> A              
     e( 28 - 28) =     11.00248  eV     1   --> A              
     e( 29 - 29) =     11.38006  eV     1   --> A              
     e( 30 - 30) =     12.43969  eV     1   --> A              

 **************************************************************************

 **************************************************************************

                    xk=(   0.09500,   0.09500,   0.00000  )

     Band symmetry, C_1 (1)     point group:

     e(  1 -  1) =    -27.13573  eV     1   --> A              
     e(  2 -  2) =    -27.08958  eV     1   --> A              
     e(  3 -  3) =    -21.27638  eV     1   --> A              
     e(  4 -  4) =    -17.90048  eV     1   --> A              
     e(  5 -  5) =    -11.94865  eV     1   --> A              
     e(  6 -  6) =     -9.31199  eV     1   --> A              
     e(  7 -  7) =     -6.88614  eV     1   --> A              
     e(  8 -  8) =     -6.35935  eV     1   --> A              
     e(  9 -  9) =     -6.08891  eV     1   --> A              
     e( 10 - 10) =     -5.85960  eV     1   --> A              
     e( 11 - 11) =     -5.58735  eV     1   --> A              
     e( 12 - 12) =     -3.86098  eV     1   --> A              
     e( 13 - 13) =     -3.51074  eV     1   --> A              
     e( 14 - 14) =     -2.81028  eV     1   --> A              
     e( 15 - 15) =     -2.28953  eV     1   --> A              
     e( 16 - 16) =      2.59177  eV     1   --> A              
     e( 17 - 17) =      4.40544  eV     1   --> A              
     e( 18 - 18) =      5.46924  eV     1   --> A              
     e( 19 - 19) =      5.60949  eV     1   --> A              
     e( 20 - 20) =      5.84669  eV     1   --> A              
     e( 21 - 21) =      6.09804  eV     1   --> A              
     e( 22 - 22) =      6.35351  eV     1   --> A              
     e( 23 - 23) =      6.87118  eV     1   --> A              
     e( 24 - 24) =      7.29821  eV     1   --> A              
     e( 25 - 25) =      7.94591  eV     1   --> A              
     e( 26 - 26) =      9.33717  eV     1   --> A              
     e( 27 - 27) =     10.46041  eV     1   --> A              
     e( 28 - 28) =     10.98625  eV     1   --> A              
     e( 29 - 29) =     11.40777  eV     1   --> A              
     e( 30 - 30) =     12.39971  eV     1   --> A              

 **************************************************************************

 **************************************************************************

                    xk=(   0.10000,   0.10000,   0.00000  )

     Band symmetry, C_1 (1)     point group:

     e(  1 -  1) =    -27.12263  eV     1   --> A              
     e(  2 -  2) =    -27.07710  eV     1   --> A              
     e(  3 -  3) =    -21.24525  eV     1   --> A              
     e(  4 -  4) =    -17.87403  eV     1   --> A              
     e(  5 -  5) =    -11.92915  eV     1   --> A              
     e(  6 -  6) =     -9.30776  eV     1   --> A              
     e(  7 -  7) =     -6.96618  eV     1   --> A              
     e(  8 -  8) =     -6.44064  eV     1   --> A              
     e(  9 -  9) =     -6.13452  eV     1   --> A              
     e( 10 - 10) =     -5.89354  eV     1   --> A              
     e( 11 - 11) =     -5.60569  eV     1   --> A              
     e( 12 - 12) =     -3.91156  eV     1   --> A              
     e( 13 - 13) =     -3.54802  eV     1   --> A              
     e( 14 - 14) =     -2.88368  eV     1   --> A              
     e( 15 - 15) =     -2.32767  eV     1   --> A              
     e( 16 - 16) =      2.63797  eV     1   --> A              
     e( 17 - 17) =      4.39397  eV     1   --> A              
     e( 18 - 18) =      5.52297  eV     1   --> A              
     e( 19 - 19) =      5.66529  eV     1   --> A              
     e( 20 - 20) =      5.89183  eV     1   --> A              
     e( 21 - 21) =      6.14814  eV     1   --> A              
     e( 22 - 22) =      6.38872  eV     1   --> A              
     e( 23 - 23) =      6.92628  eV     1   --> A              
     e( 24 - 24) =      7.40291  eV     1   --> A              
     e( 25 - 25) =      7.99219  eV     1   --> A              
     e( 26 - 26) =      9.38496  eV     1   --> A              
     e( 27 - 27) =     10.48715  eV     1   --> A              
     e( 28 - 28) =     10.97067  eV     1   --> A              
     e( 29 - 29) =     11.43623  eV     1   --> A              
     e( 30 - 30) =     12.35898  eV     1   --> A              

 **************************************************************************

 **************************************************************************

                    xk=(   0.10500,   0.10500,   0.00000  )

     Band symmetry, C_1 (1)     point group:

     e(  1 -  1) =    -27.10897  eV     1   --> A              
     e(  2 -  2) =    -27.06409  eV     1   --> A              
     e(  3 -  3) =    -21.21252  eV     1   --> A              
     e(  4 -  4) =    -17.84623  eV     1   --> A              
     e(  5 -  5) =    -11.90879  eV     1   --> A              
     e(  6 -  6) =     -9.30365  eV     1   --> A              
     e(  7 -  7) =     -7.05080  eV     1   --> A              
     e(  8 -  8) =     -6.52439  eV     1   --> A              
     e(  9 -  9) =     -6.18224  eV     1   --> A              
     e( 10 - 10) =     -5.92877  eV     1   --> A              
     e( 11 - 11) =     -5.62479  eV     1   --> A              
     e( 12 - 12) =     -3.96124  eV     1   --> A              
     e( 13 - 13) =     -3.58699  eV     1   --> A              
     e( 14 - 14) =     -2.95698  eV     1   --> A              
     e( 15 - 15) =     -2.36697  eV     1   --> A              
     e( 16 - 16) =      2.68413  eV     1   --> A              
     e( 17 - 17) =      4.38300  eV     1   --> A              
     e( 18 - 18) =      5.57687  eV     1   --> A              
     e( 19 - 19) =      5.72160  eV     1   --> A              
     e( 20 - 20) =      5.93599  eV     1   --> A              
     e( 21 - 21) =      6.20087  eV     1   --> A              
     e( 22 - 22) =      6.42875  eV     1   --> A              
     e( 23 - 23) =      6.98410  eV     1   --> A              
     e( 24 - 24) =      7.51007  eV     1   --> A              
     e( 25 - 25) =      8.04076  eV     1   --> A              
     e( 26 - 26) =      9.43531  eV     1   --> A              
     e( 27 - 27) =     10.51133  eV     1   --> A              
     e( 28 - 28) =     10.95676  eV     1   --> A              
     e( 29 - 29) =     11.46516  eV     1   --> A              
     e( 30 - 30) =     12.31836  eV     1   --> A              

 **************************************************************************

 **************************************************************************

                    xk=(   0.11000,   0.11000,   0.00000  )

     Band symmetry, C_1 (1)     point group:

     e(  1 -  1) =    -27.09476  eV     1   --> A              
     e(  2 -  2) =    -27.05055  eV     1   --> A              
     e(  3 -  3) =    -21.17821  eV     1   --> A              
     e(  4 -  4) =    -17.81709  eV     1   --> A              
     e(  5 -  5) =    -11.88762  eV     1   --> A              
     e(  6 -  6) =     -9.29973  eV     1   --> A              
     e(  7 -  7) =     -7.13995  eV     1   --> A              
     e(  8 -  8) =     -6.61023  eV     1   --> A              
     e(  9 -  9) =     -6.23197  eV     1   --> A              
     e( 10 - 10) =     -5.96534  eV     1   --> A              
     e( 11 - 11) =     -5.64469  eV     1   --> A              
     e( 12 - 12) =     -4.00997  eV     1   --> A              
     e( 13 - 13) =     -3.62770  eV     1   --> A              
     e( 14 - 14) =     -3.02975  eV     1   --> A              
     e( 15 - 15) =     -2.40734  eV     1   --> A              
     e( 16 - 16) =      2.73004  eV     1   --> A              
     e( 17 - 17) =      4.37265  eV     1   --> A              
     e( 18 - 18) =      5.63068  eV     1   --> A              
     e( 19 - 19) =      5.77856  eV     1   --> A              
     e( 20 - 20) =      5.97891  eV     1   --> A              
     e( 21 - 21) =      6.25610  eV     1   --> A              
     e( 22 - 22) =      6.47367  eV     1   --> A              
     e( 23 - 23) =      7.04463  eV     1   --> A              
     e( 24 - 24) =      7.61914  eV     1   --> A              
     e( 25 - 25) =      8.09161  eV     1   --> A              
     e( 26 - 26) =      9.48821  eV     1   --> A              
     e( 27 - 27) =     10.53142  eV     1   --> A              
     e( 28 - 28) =     10.94583  eV     1   --> A              
     e( 29 - 29) =     11.49414  eV     1   --> A              
     e( 30 - 30) =     12.27868  eV     1   --> A              

 **************************************************************************

 **************************************************************************

                    xk=(   0.11500,   0.11500,   0.00000  )

     Band symmetry, C_1 (1)     point group:

     e(  1 -  1) =    -27.08003  eV     1   --> A              
     e(  2 -  2) =    -27.03650  eV     1   --> A              
     e(  3 -  3) =    -21.14232  eV     1   --> A              
     e(  4 -  4) =    -17.78662  eV     1   --> A              
     e(  5 -  5) =    -11.86564  eV     1   --> A              
     e(  6 -  6) =     -9.29609  eV     1   --> A              
     e(  7 -  7) =     -7.23352  eV     1   --> A              
     e(  8 -  8) =     -6.69781  eV     1   --> A              
     e(  9 -  9) =     -6.28361  eV     1   --> A              
     e( 10 - 10) =     -6.00330  eV     1   --> A              
     e( 11 - 11) =     -5.66540  eV     1   --> A              
     e( 12 - 12) =     -4.05772  eV     1   --> A              
     e( 13 - 13) =     -3.67021  eV     1   --> A              
     e( 14 - 14) =     -3.10162  eV     1   --> A              
     e( 15 - 15) =     -2.44863  eV     1   --> A              
     e( 16 - 16) =      2.77557  eV     1   --> A              
     e( 17 - 17) =      4.36302  eV     1   --> A              
     e( 18 - 18) =      5.68411  eV     1   --> A              
     e( 19 - 19) =      5.83624  eV     1   --> A              
     e( 20 - 20) =      6.02070  eV     1   --> A              
     e( 21 - 21) =      6.31373  eV     1   --> A              
     e( 22 - 22) =      6.52336  eV     1   --> A              
     e( 23 - 23) =      7.10786  eV     1   --> A              
     e( 24 - 24) =      7.72957  eV     1   --> A              
     e( 25 - 25) =      8.14474  eV     1   --> A              
     e( 26 - 26) =      9.54365  eV     1   --> A              
     e( 27 - 27) =     10.54570  eV     1   --> A              
     e( 28 - 28) =     10.93954  eV     1   --> A              
     e( 29 - 29) =     11.52260  eV     1   --> A              
     e( 30 - 30) =     12.24104  eV     1   --> A              

 **************************************************************************

 **************************************************************************

                    xk=(   0.12000,   0.12000,   0.00000  )

     Band symmetry, C_1 (1)     point group:

     e(  1 -  1) =    -27.06478  eV     1   --> A              
     e(  2 -  2) =    -27.02196  eV     1   --> A              
     e(  3 -  3) =    -21.10483  eV     1   --> A              
     e(  4 -  4) =    -17.75482  eV     1   --> A              
     e(  5 -  5) =    -11.84291  eV     1   --> A              
     e(  6 -  6) =     -9.29282  eV     1   --> A              
     e(  7 -  7) =     -7.33137  eV     1   --> A              
     e(  8 -  8) =     -6.78681  eV     1   --> A              
     e(  9 -  9) =     -6.33705  eV     1   --> A              
     e( 10 - 10) =     -6.04266  eV     1   --> A              
     e( 11 - 11) =     -5.68695  eV     1   --> A              
     e( 12 - 12) =     -4.10456  eV     1   --> A              
     e( 13 - 13) =     -3.71453  eV     1   --> A              
     e( 14 - 14) =     -3.17216  eV     1   --> A              
     e( 15 - 15) =     -2.49074  eV     1   --> A              
     e( 16 - 16) =      2.82059  eV     1   --> A              
     e( 17 - 17) =      4.35424  eV     1   --> A              
     e( 18 - 18) =      5.73687  eV     1   --> A              
     e( 19 - 19) =      5.89459  eV     1   --> A              
     e( 20 - 20) =      6.06179  eV     1   --> A              
     e( 21 - 21) =      6.37361  eV     1   --> A              
     e( 22 - 22) =      6.57749  eV     1   --> A              
     e( 23 - 23) =      7.17372  eV     1   --> A              
     e( 24 - 24) =      7.84077  eV     1   --> A              
     e( 25 - 25) =      8.20016  eV     1   --> A              
     e( 26 - 26) =      9.60159  eV     1   --> A              
     e( 27 - 27) =     10.55250  eV     1   --> A              
     e( 28 - 28) =     10.93946  eV     1   --> A              
     e( 29 - 29) =     11.54979  eV     1   --> A              
     e( 30 - 30) =     12.20674  eV     1   --> A              

 **************************************************************************

 **************************************************************************

                    xk=(   0.12500,   0.12500,   0.00000  )

     Band symmetry, C_1 (1)     point group:

     e(  1 -  1) =    -27.04903  eV     1   --> A              
     e(  2 -  2) =    -27.00695  eV     1   --> A              
     e(  3 -  3) =    -21.06577  eV     1   --> A              
     e(  4 -  4) =    -17.72168  eV     1   --> A              
     e(  5 -  5) =    -11.81944  eV     1   --> A              
     e(  6 -  6) =     -9.29003  eV     1   --> A              
     e(  7 -  7) =     -7.43329  eV     1   --> A              
     e(  8 -  8) =     -6.87697  eV     1   --> A              
     e(  9 -  9) =     -6.39218  eV     1   --> A              
     e( 10 - 10) =     -6.08342  eV     1   --> A              
     e( 11 - 11) =     -5.70938  eV     1   --> A              
     e( 12 - 12) =     -4.15059  eV     1   --> A              
     e( 13 - 13) =     -3.76069  eV     1   --> A              
     e( 14 - 14) =     -3.24099  eV     1   --> A              
     e( 15 - 15) =     -2.53354  eV     1   --> A              
     e( 16 - 16) =      2.86494  eV     1   --> A              
     e( 17 - 17) =      4.34644  eV     1   --> A              
     e( 18 - 18) =      5.78860  eV     1   --> A              
     e( 19 - 19) =      5.95345  eV     1   --> A              
     e( 20 - 20) =      6.10299  eV     1   --> A              
     e( 21 - 21) =      6.43562  eV     1   --> A              
     e( 22 - 22) =      6.63558  eV     1   --> A              
     e( 23 - 23) =      7.24212  eV     1   --> A              
     e( 24 - 24) =      7.95214  eV     1   --> A              
     e( 25 - 25) =      8.25790  eV     1   --> A              
     e( 26 - 26) =      9.66196  eV     1   --> A              
     e( 27 - 27) =     10.55079  eV     1   --> A              
     e( 28 - 28) =     10.94659  eV     1   --> A              
     e( 29 - 29) =     11.57469  eV     1   --> A              
     e( 30 - 30) =     12.17735  eV     1   --> A              

 **************************************************************************

 **************************************************************************

                    xk=(   0.13000,   0.13000,   0.00000  )

     Band symmetry, C_1 (1)     point group:

     e(  1 -  1) =    -27.03281  eV     1   --> A              
     e(  2 -  2) =    -26.99149  eV     1   --> A              
     e(  3 -  3) =    -21.02511  eV     1   --> A              
     e(  4 -  4) =    -17.68721  eV     1   --> A              
     e(  5 -  5) =    -11.79529  eV     1   --> A              
     e(  6 -  6) =     -9.28787  eV     1   --> A              
     e(  7 -  7) =     -7.53903  eV     1   --> A              
     e(  8 -  8) =     -6.96803  eV     1   --> A              
     e(  9 -  9) =     -6.44887  eV     1   --> A              
     e( 10 - 10) =     -6.12555  eV     1   --> A              
     e( 11 - 11) =     -5.73270  eV     1   --> A              
     e( 12 - 12) =     -4.19596  eV     1   --> A              
     e( 13 - 13) =     -3.80866  eV     1   --> A              
     e( 14 - 14) =     -3.30775  eV     1   --> A              
     e( 15 - 15) =     -2.57692  eV     1   --> A              
     e( 16 - 16) =      2.90850  eV     1   --> A              
     e( 17 - 17) =      4.33975  eV     1   --> A              
     e( 18 - 18) =      5.83893  eV     1   --> A              
     e( 19 - 19) =      6.01247  eV     1   --> A              
     e( 20 - 20) =      6.14538  eV     1   --> A              
     e( 21 - 21) =      6.49964  eV     1   --> A              
     e( 22 - 22) =      6.69709  eV     1   --> A              
     e( 23 - 23) =      7.31295  eV     1   --> A              
     e( 24 - 24) =      8.06301  eV     1   --> A              
     e( 25 - 25) =      8.31803  eV     1   --> A              
     e( 26 - 26) =      9.72461  eV     1   --> A              
     e( 27 - 27) =     10.54069  eV     1   --> A              
     e( 28 - 28) =     10.96090  eV     1   --> A              
     e( 29 - 29) =     11.59608  eV     1   --> A              
     e( 30 - 30) =     12.15468  eV     1   --> A              

 **************************************************************************

 **************************************************************************

                    xk=(   0.13500,   0.13500,   0.00000  )

     Band symmetry, C_1 (1)     point group:

     e(  1 -  1) =    -27.01614  eV     1   --> A              
     e(  2 -  2) =    -26.97558  eV     1   --> A              
     e(  3 -  3) =    -20.98288  eV     1   --> A              
     e(  4 -  4) =    -17.65142  eV     1   --> A              
     e(  5 -  5) =    -11.77049  eV     1   --> A              
     e(  6 -  6) =     -9.28649  eV     1   --> A              
     e(  7 -  7) =     -7.64825  eV     1   --> A              
     e(  8 -  8) =     -7.05981  eV     1   --> A              
     e(  9 -  9) =     -6.50702  eV     1   --> A              
     e( 10 - 10) =     -6.16904  eV     1   --> A              
     e( 11 - 11) =     -5.75696  eV     1   --> A              
     e( 12 - 12) =     -4.24090  eV     1   --> A              
     e( 13 - 13) =     -3.85833  eV     1   --> A              
     e( 14 - 14) =     -3.37214  eV     1   --> A              
     e( 15 - 15) =     -2.62077  eV     1   --> A              
     e( 16 - 16) =      2.95115  eV     1   --> A              
     e( 17 - 17) =      4.33431  eV     1   --> A              
     e( 18 - 18) =      5.88742  eV     1   --> A              
     e( 19 - 19) =      6.07116  eV     1   --> A              
     e( 20 - 20) =      6.19031  eV     1   --> A              
     e( 21 - 21) =      6.56555  eV     1   --> A              
     e( 22 - 22) =      6.76147  eV     1   --> A              
     e( 23 - 23) =      7.38607  eV     1   --> A              
     e( 24 - 24) =      8.17267  eV     1   --> A              
     e( 25 - 25) =      8.38069  eV     1   --> A              
     e( 26 - 26) =      9.78930  eV     1   --> A              
     e( 27 - 27) =     10.52337  eV     1   --> A              
     e( 28 - 28) =     10.98139  eV     1   --> A              
     e( 29 - 29) =     11.61264  eV     1   --> A              
     e( 30 - 30) =     12.14060  eV     1   --> A              

 **************************************************************************

 **************************************************************************

                    xk=(   0.14000,   0.14000,   0.00000  )

     Band symmetry, C_1 (1)     point group:

     e(  1 -  1) =    -26.99904  eV     1   --> A              
     e(  2 -  2) =    -26.95926  eV     1   --> A              
     e(  3 -  3) =    -20.93906  eV     1   --> A              
     e(  4 -  4) =    -17.61431  eV     1   --> A              
     e(  5 -  5) =    -11.74510  eV     1   --> A              
     e(  6 -  6) =     -9.28610  eV     1   --> A              
     e(  7 -  7) =     -7.76058  eV     1   --> A              
     e(  8 -  8) =     -7.15211  eV     1   --> A              
     e(  9 -  9) =     -6.56648  eV     1   --> A              
     e( 10 - 10) =     -6.21383  eV     1   --> A              
     e( 11 - 11) =     -5.78216  eV     1   --> A              
     e( 12 - 12) =     -4.28568  eV     1   --> A              
     e( 13 - 13) =     -3.90947  eV     1   --> A              
     e( 14 - 14) =     -3.43391  eV     1   --> A              
     e( 15 - 15) =     -2.66497  eV     1   --> A              
     e( 16 - 16) =      2.99275  eV     1   --> A              
     e( 17 - 17) =      4.33023  eV     1   --> A              
     e( 18 - 18) =      5.93359  eV     1   --> A              
     e( 19 - 19) =      6.12894  eV     1   --> A              
     e( 20 - 20) =      6.23914  eV     1   --> A              
     e( 21 - 21) =      6.63324  eV     1   --> A              
     e( 22 - 22) =      6.82819  eV     1   --> A              
     e( 23 - 23) =      7.46129  eV     1   --> A              
     e( 24 - 24) =      8.28027  eV     1   --> A              
     e( 25 - 25) =      8.44608  eV     1   --> A              
     e( 26 - 26) =      9.85557  eV     1   --> A              
     e( 27 - 27) =     10.50078  eV     1   --> A              
     e( 28 - 28) =     11.00656  eV     1   --> A              
     e( 29 - 29) =     11.62330  eV     1   --> A              
     e( 30 - 30) =     12.13673  eV     1   --> A              

 **************************************************************************

 **************************************************************************

                    xk=(   0.14500,   0.14500,   0.00000  )

     Band symmetry, C_1 (1)     point group:

     e(  1 -  1) =    -26.98151  eV     1   --> A              
     e(  2 -  2) =    -26.94254  eV     1   --> A              
     e(  3 -  3) =    -20.89365  eV     1   --> A              
     e(  4 -  4) =    -17.57587  eV     1   --> A              
     e(  5 -  5) =    -11.71916  eV     1   --> A              
     e(  6 -  6) =     -9.28694  eV     1   --> A              
     e(  7 -  7) =     -7.87561  eV     1   --> A              
     e(  8 -  8) =     -7.24476  eV     1   --> A              
     e(  9 -  9) =     -6.62713  eV     1   --> A              
     e( 10 - 10) =     -6.25988  eV     1   --> A              
     e( 11 - 11) =     -5.80834  eV     1   --> A              
     e( 12 - 12) =     -4.33064  eV     1   --> A              
     e( 13 - 13) =     -3.96175  eV     1   --> A              
     e( 14 - 14) =     -3.49292  eV     1   --> A              
     e( 15 - 15) =     -2.70942  eV     1   --> A              
     e( 16 - 16) =      3.03321  eV     1   --> A              
     e( 17 - 17) =      4.32767  eV     1   --> A              
     e( 18 - 18) =      5.97705  eV     1   --> A              
     e( 19 - 19) =      6.18547  eV     1   --> A              
     e( 20 - 20) =      6.29293  eV     1   --> A              
     e( 21 - 21) =      6.70263  eV     1   --> A              
     e( 22 - 22) =      6.89683  eV     1   --> A              
     e( 23 - 23) =      7.53841  eV     1   --> A              
     e( 24 - 24) =      8.38480  eV     1   --> A              
     e( 25 - 25) =      8.51465  eV     1   --> A              
     e( 26 - 26) =      9.92259  eV     1   --> A              
     e( 27 - 27) =     10.47534  eV     1   --> A              
     e( 28 - 28) =     11.03493  eV     1   --> A              
     e( 29 - 29) =     11.62769  eV     1   --> A              
     e( 30 - 30) =     12.14402  eV     1   --> A              

 **************************************************************************

 **************************************************************************

                    xk=(   0.15000,   0.15000,   0.00000  )

     Band symmetry, C_1 (1)     point group:

     e(  1 -  1) =    -26.96360  eV     1   --> A              
     e(  2 -  2) =    -26.92543  eV     1   --> A              
     e(  3 -  3) =    -20.84666  eV     1   --> A              
     e(  4 -  4) =    -17.53611  eV     1   --> A              
     e(  5 -  5) =    -11.69274  eV     1   --> A              
     e(  6 -  6) =     -9.28933  eV     1   --> A              
     e(  7 -  7) =     -7.99283  eV     1   --> A              
     e(  8 -  8) =     -7.33758  eV     1   --> A              
     e(  9 -  9) =     -6.68886  eV     1   --> A              
     e( 10 - 10) =     -6.30713  eV     1   --> A              
     e( 11 - 11) =     -5.83552  eV     1   --> A              
     e( 12 - 12) =     -4.37618  eV     1   --> A              
     e( 13 - 13) =     -4.01473  eV     1   --> A              
     e( 14 - 14) =     -3.54912  eV     1   --> A              
     e( 15 - 15) =     -2.75403  eV     1   --> A              
     e( 16 - 16) =      3.07240  eV     1   --> A              
     e( 17 - 17) =      4.32674  eV     1   --> A              
     e( 18 - 18) =      6.01751  eV     1   --> A              
     e( 19 - 19) =      6.24095  eV     1   --> A              
     e( 20 - 20) =      6.35194  eV     1   --> A              
     e( 21 - 21) =      6.77362  eV     1   --> A              
     e( 22 - 22) =      6.96694  eV     1   --> A              
     e( 23 - 23) =      7.61719  eV     1   --> A              
     e( 24 - 24) =      8.48495  eV     1   --> A              
     e( 25 - 25) =      8.58703  eV     1   --> A              
     e( 26 - 26) =      9.98877  eV     1   --> A              
     e( 27 - 27) =     10.45008  eV     1   --> A              
     e( 28 - 28) =     11.06514  eV     1   --> A              
     e( 29 - 29) =     11.62644  eV     1   --> A              
     e( 30 - 30) =     12.16238  eV     1   --> A              

 **************************************************************************

 **************************************************************************

                    xk=(   0.15500,   0.15500,   0.00000  )

     Band symmetry, C_1 (1)     point group:

     e(  1 -  1) =    -26.94531  eV     1   --> A              
     e(  2 -  2) =    -26.90798  eV     1   --> A              
     e(  3 -  3) =    -20.79810  eV     1   --> A              
     e(  4 -  4) =    -17.49504  eV     1   --> A              
     e(  5 -  5) =    -11.66591  eV     1   --> A              
     e(  6 -  6) =     -9.29366  eV     1   --> A              
     e(  7 -  7) =     -8.11169  eV     1   --> A              
     e(  8 -  8) =     -7.43040  eV     1   --> A              
     e(  9 -  9) =     -6.75154  eV     1   --> A              
     e( 10 - 10) =     -6.35553  eV     1   --> A              
     e( 11 - 11) =     -5.86373  eV     1   --> A              
     e( 12 - 12) =     -4.42275  eV     1   --> A              
     e( 13 - 13) =     -4.06781  eV     1   --> A              
     e( 14 - 14) =     -3.60254  eV     1   --> A              
     e( 15 - 15) =     -2.79869  eV     1   --> A              
     e( 16 - 16) =      3.11022  eV     1   --> A              
     e( 17 - 17) =      4.32755  eV     1   --> A              
     e( 18 - 18) =      6.05491  eV     1   --> A              
     e( 19 - 19) =      6.29603  eV     1   --> A              
     e( 20 - 20) =      6.41574  eV     1   --> A              
     e( 21 - 21) =      6.84615  eV     1   --> A              
     e( 22 - 22) =      7.03821  eV     1   --> A              
     e( 23 - 23) =      7.69736  eV     1   --> A              
     e( 24 - 24) =      8.57937  eV     1   --> A              
     e( 25 - 25) =      8.66397  eV     1   --> A              
     e( 26 - 26) =     10.05092  eV     1   --> A              
     e( 27 - 27) =     10.42945  eV     1   --> A              
     e( 28 - 28) =     11.09610  eV     1   --> A              
     e( 29 - 29) =     11.62098  eV     1   --> A              
     e( 30 - 30) =     12.19086  eV     1   --> A              

 **************************************************************************

 **************************************************************************

                    xk=(   0.16000,   0.16000,   0.00000  )

     Band symmetry, C_1 (1)     point group:

     e(  1 -  1) =    -26.92668  eV     1   --> A              
     e(  2 -  2) =    -26.89018  eV     1   --> A              
     e(  3 -  3) =    -20.74797  eV     1   --> A              
     e(  4 -  4) =    -17.45266  eV     1   --> A              
     e(  5 -  5) =    -11.63875  eV     1   --> A              
     e(  6 -  6) =     -9.30047  eV     1   --> A              
     e(  7 -  7) =     -8.23153  eV     1   --> A              
     e(  8 -  8) =     -7.52300  eV     1   --> A              
     e(  9 -  9) =     -6.81505  eV     1   --> A              
     e( 10 - 10) =     -6.40498  eV     1   --> A              
     e( 11 - 11) =     -5.89297  eV     1   --> A              
     e( 12 - 12) =     -4.47078  eV     1   --> A              
     e( 13 - 13) =     -4.12037  eV     1   --> A              
     e( 14 - 14) =     -3.65328  eV     1   --> A              
     e( 15 - 15) =     -2.84333  eV     1   --> A              
     e( 16 - 16) =      3.14660  eV     1   --> A              
     e( 17 - 17) =      4.33022  eV     1   --> A              
     e( 18 - 18) =      6.08940  eV     1   --> A              
     e( 19 - 19) =      6.35140  eV     1   --> A              
     e( 20 - 20) =      6.48357  eV     1   --> A              
     e( 21 - 21) =      6.92014  eV     1   --> A              
     e( 22 - 22) =      7.11032  eV     1   --> A              
     e( 23 - 23) =      7.77862  eV     1   --> A              
     e( 24 - 24) =      8.66762  eV     1   --> A              
     e( 25 - 25) =      8.74531  eV     1   --> A              
     e( 26 - 26) =     10.10300  eV     1   --> A              
     e( 27 - 27) =     10.42069  eV     1   --> A              
     e( 28 - 28) =     11.12696  eV     1   --> A              
     e( 29 - 29) =     11.61315  eV     1   --> A              
     e( 30 - 30) =     12.22811  eV     1   --> A              

 **************************************************************************

 **************************************************************************

                    xk=(   0.16500,   0.16500,   0.00000  )

     Band symmetry, C_1 (1)     point group:

     e(  1 -  1) =    -26.90772  eV     1   --> A              
     e(  2 -  2) =    -26.87207  eV     1   --> A              
     e(  3 -  3) =    -20.69625  eV     1   --> A              
     e(  4 -  4) =    -17.40896  eV     1   --> A              
     e(  5 -  5) =    -11.61135  eV     1   --> A              
     e(  6 -  6) =     -9.31045  eV     1   --> A              
     e(  7 -  7) =     -8.35155  eV     1   --> A              
     e(  8 -  8) =     -7.61513  eV     1   --> A              
     e(  9 -  9) =     -6.87927  eV     1   --> A              
     e( 10 - 10) =     -6.45542  eV     1   --> A              
     e( 11 - 11) =     -5.92327  eV     1   --> A              
     e( 12 - 12) =     -4.52070  eV     1   --> A              
     e( 13 - 13) =     -4.17175  eV     1   --> A              
     e( 14 - 14) =     -3.70149  eV     1   --> A              
     e( 15 - 15) =     -2.88784  eV     1   --> A              
     e( 16 - 16) =      3.18148  eV     1   --> A              
     e( 17 - 17) =      4.33484  eV     1   --> A              
     e( 18 - 18) =      6.12126  eV     1   --> A              
     e( 19 - 19) =      6.40745  eV     1   --> A              
     e( 20 - 20) =      6.55475  eV     1   --> A              
     e( 21 - 21) =      6.99556  eV     1   --> A              
     e( 22 - 22) =      7.18298  eV     1   --> A              
     e( 23 - 23) =      7.86066  eV     1   --> A              
     e( 24 - 24) =      8.75108  eV     1   --> A              
     e( 25 - 25) =      8.82906  eV     1   --> A              
     e( 26 - 26) =     10.13616  eV     1   --> A              
     e( 27 - 27) =     10.43372  eV     1   --> A              
     e( 28 - 28) =     11.15702  eV     1   --> A              
     e( 29 - 29) =     11.60477  eV     1   --> A              
     e( 30 - 30) =     12.27273  eV     1   --> A              

 **************************************************************************

 **************************************************************************

                    xk=(   0.17000,   0.17000,   0.00000  )

     Band symmetry, C_1 (1)     point group:

     e(  1 -  1) =    -26.88848  eV     1   --> A              
     e(  2 -  2) =    -26.85368  eV     1   --> A              
     e(  3 -  3) =    -20.64298  eV     1   --> A              
     e(  4 -  4) =    -17.36398  eV     1   --> A              
     e(  5 -  5) =    -11.58382  eV     1   --> A              
     e(  6 -  6) =     -9.32455  eV     1   --> A              
     e(  7 -  7) =     -8.47075  eV     1   --> A              
     e(  8 -  8) =     -7.70651  eV     1   --> A              
     e(  9 -  9) =     -6.94411  eV     1   --> A              
     e( 10 - 10) =     -6.50676  eV     1   --> A              
     e( 11 - 11) =     -5.95462  eV     1   --> A              
     e( 12 - 12) =     -4.57285  eV     1   --> A              
     e( 13 - 13) =     -4.22141  eV     1   --> A              
     e( 14 - 14) =     -3.74737  eV     1   --> A              
     e( 15 - 15) =     -2.93218  eV     1   --> A              
     e( 16 - 16) =      3.21478  eV     1   --> A              
     e( 17 - 17) =      4.34145  eV     1   --> A              
     e( 18 - 18) =      6.15080  eV     1   --> A              
     e( 19 - 19) =      6.46428  eV     1   --> A              
     e( 20 - 20) =      6.62877  eV     1   --> A              
     e( 21 - 21) =      7.07237  eV     1   --> A              
     e( 22 - 22) =      7.25590  eV     1   --> A              
     e( 23 - 23) =      7.94310  eV     1   --> A              
     e( 24 - 24) =      8.83207  eV     1   --> A              
     e( 25 - 25) =      8.91227  eV     1   --> A              
     e( 26 - 26) =     10.14602  eV     1   --> A              
     e( 27 - 27) =     10.47398  eV     1   --> A              
     e( 28 - 28) =     11.18575  eV     1   --> A              
     e( 29 - 29) =     11.59732  eV     1   --> A              
     e( 30 - 30) =     12.32353  eV     1   --> A              

 **************************************************************************

 **************************************************************************

                    xk=(   0.17500,   0.17500,   0.00000  )

     Band symmetry, C_1 (1)     point group:

     e(  1 -  1) =    -26.86895  eV     1   --> A              
     e(  2 -  2) =    -26.83501  eV     1   --> A              
     e(  3 -  3) =    -20.58813  eV     1   --> A              
     e(  4 -  4) =    -17.31769  eV     1   --> A              
     e(  5 -  5) =    -11.55630  eV     1   --> A              
     e(  6 -  6) =     -9.34405  eV     1   --> A              
     e(  7 -  7) =     -8.58782  eV     1   --> A              
     e(  8 -  8) =     -7.79680  eV     1   --> A              
     e(  9 -  9) =     -7.00943  eV     1   --> A              
     e( 10 - 10) =     -6.55890  eV     1   --> A              
     e( 11 - 11) =     -5.98704  eV     1   --> A              
     e( 12 - 12) =     -4.62738  eV     1   --> A              
     e( 13 - 13) =     -4.26891  eV     1   --> A              
     e( 14 - 14) =     -3.79106  eV     1   --> A              
     e( 15 - 15) =     -2.97625  eV     1   --> A              
     e( 16 - 16) =      3.24651  eV     1   --> A              
     e( 17 - 17) =      4.35013  eV     1   --> A              
     e( 18 - 18) =      6.17837  eV     1   --> A              
     e( 19 - 19) =      6.52176  eV     1   --> A              
     e( 20 - 20) =      6.70532  eV     1   --> A              
     e( 21 - 21) =      7.15054  eV     1   --> A              
     e( 22 - 22) =      7.32878  eV     1   --> A              
     e( 23 - 23) =      8.02558  eV     1   --> A              
     e( 24 - 24) =      8.91244  eV     1   --> A              
     e( 25 - 25) =      8.99256  eV     1   --> A              
     e( 26 - 26) =     10.13889  eV     1   --> A              
     e( 27 - 27) =     10.53630  eV     1   --> A              
[...]
     e( 26 - 26) =      9.00796  eV     1   --> A              
     e( 27 - 27) =     10.21372  eV     1   --> A              
     e( 28 - 28) =     11.11043  eV     1   --> A              
     e( 29 - 29) =     11.19540  eV     1   --> A              
     e( 30 - 30) =     12.23123  eV     1   --> A              

 **************************************************************************

 **************************************************************************

                    xk=(   0.05333,   0.02667,   0.00000  )

     Band symmetry, C_1 (1)     point group:

     e(  1 -  1) =    -27.23625  eV     1   --> A              
     e(  2 -  2) =    -27.18525  eV     1   --> A              
     e(  3 -  3) =    -21.50796  eV     1   --> A              
     e(  4 -  4) =    -18.09753  eV     1   --> A              
     e(  5 -  5) =    -12.09770  eV     1   --> A              
     e(  6 -  6) =     -9.35194  eV     1   --> A              
     e(  7 -  7) =     -6.31231  eV     1   --> A              
     e(  8 -  8) =     -5.76982  eV     1   --> A              
     e(  9 -  9) =     -5.74541  eV     1   --> A              
     e( 10 - 10) =     -5.53786  eV     1   --> A              
     e( 11 - 11) =     -5.44228  eV     1   --> A              
     e( 12 - 12) =     -3.33628  eV     1   --> A              
     e( 13 - 13) =     -3.21844  eV     1   --> A              
     e( 14 - 14) =     -2.12997  eV     1   --> A              
     e( 15 - 15) =     -1.98405  eV     1   --> A              
     e( 16 - 16) =      2.14998  eV     1   --> A              
     e( 17 - 17) =      4.53069  eV     1   --> A              
     e( 18 - 18) =      4.98767  eV     1   --> A              
     e( 19 - 19) =      5.04618  eV     1   --> A              
     e( 20 - 20) =      5.45279  eV     1   --> A              
     e( 21 - 21) =      5.73576  eV     1   --> A              
     e( 22 - 22) =      6.17350  eV     1   --> A              
     e( 23 - 23) =      6.38301  eV     1   --> A              
     e( 24 - 24) =      6.52046  eV     1   --> A              
     e( 25 - 25) =      7.59886  eV     1   --> A              
     e( 26 - 26) =      8.98523  eV     1   --> A              
     e( 27 - 27) =     10.19407  eV     1   --> A              
     e( 28 - 28) =     11.11831  eV     1   --> A              
     e( 29 - 29) =     11.17988  eV     1   --> A              
     e( 30 - 30) =     12.20758  eV     1   --> A              

 **************************************************************************

 **************************************************************************

                    xk=(   0.04667,   0.02333,   0.00000  )

     Band symmetry, C_1 (1)     point group:

     e(  1 -  1) =    -27.24220  eV     1   --> A              
     e(  2 -  2) =    -27.19091  eV     1   --> A              
     e(  3 -  3) =    -21.52129  eV     1   --> A              
     e(  4 -  4) =    -18.10889  eV     1   --> A              
     e(  5 -  5) =    -12.10647  eV     1   --> A              
     e(  6 -  6) =     -9.35464  eV     1   --> A              
     e(  7 -  7) =     -6.28074  eV     1   --> A              
     e(  8 -  8) =     -5.74270  eV     1   --> A              
     e(  9 -  9) =     -5.72728  eV     1   --> A              
     e( 10 - 10) =     -5.50924  eV     1   --> A              
     e( 11 - 11) =     -5.43257  eV     1   --> A              
     e( 12 - 12) =     -3.29382  eV     1   --> A              
     e( 13 - 13) =     -3.20164  eV     1   --> A              
     e( 14 - 14) =     -2.08027  eV     1   --> A              
     e( 15 - 15) =     -1.96688  eV     1   --> A              
     e( 16 - 16) =      2.11720  eV     1   --> A              
     e( 17 - 17) =      4.54260  eV     1   --> A              
     e( 18 - 18) =      4.95286  eV     1   --> A              
     e( 19 - 19) =      5.00142  eV     1   --> A              
     e( 20 - 20) =      5.42999  eV     1   --> A              
     e( 21 - 21) =      5.71601  eV     1   --> A              
     e( 22 - 22) =      6.16819  eV     1   --> A              
     e( 23 - 23) =      6.32953  eV     1   --> A              
     e( 24 - 24) =      6.49550  eV     1   --> A              
     e( 25 - 25) =      7.57873  eV     1   --> A              
     e( 26 - 26) =      8.96518  eV     1   --> A              
     e( 27 - 27) =     10.17652  eV     1   --> A              
     e( 28 - 28) =     11.12495  eV     1   --> A              
     e( 29 - 29) =     11.16617  eV     1   --> A              
     e( 30 - 30) =     12.18683  eV     1   --> A              

 **************************************************************************

 **************************************************************************

                    xk=(   0.04000,   0.02000,   0.00000  )

     Band symmetry, C_1 (1)     point group:

     e(  1 -  1) =    -27.24737  eV     1   --> A              
     e(  2 -  2) =    -27.19582  eV     1   --> A              
     e(  3 -  3) =    -21.53283  eV     1   --> A              
     e(  4 -  4) =    -18.11872  eV     1   --> A              
     e(  5 -  5) =    -12.11409  eV     1   --> A              
     e(  6 -  6) =     -9.35701  eV     1   --> A              
     e(  7 -  7) =     -6.25358  eV     1   --> A              
     e(  8 -  8) =     -5.72082  eV     1   --> A              
     e(  9 -  9) =     -5.71148  eV     1   --> A              
     e( 10 - 10) =     -5.48261  eV     1   --> A              
     e( 11 - 11) =     -5.42416  eV     1   --> A              
     e( 12 - 12) =     -3.25578  eV     1   --> A              
     e( 13 - 13) =     -3.18676  eV     1   --> A              
     e( 14 - 14) =     -2.03628  eV     1   --> A              
     e( 15 - 15) =     -1.95185  eV     1   --> A              
     e( 16 - 16) =      2.08780  eV     1   --> A              
     e( 17 - 17) =      4.55337  eV     1   --> A              
     e( 18 - 18) =      4.92258  eV     1   --> A              
     e( 19 - 19) =      4.96090  eV     1   --> A              
     e( 20 - 20) =      5.41029  eV     1   --> A              
     e( 21 - 21) =      5.69898  eV     1   --> A              
     e( 22 - 22) =      6.16349  eV     1   --> A              
     e( 23 - 23) =      6.28253  eV     1   --> A              
     e( 24 - 24) =      6.47442  eV     1   --> A              
     e( 25 - 25) =      7.56126  eV     1   --> A              
     e( 26 - 26) =      8.94782  eV     1   --> A              
     e( 27 - 27) =     10.16117  eV     1   --> A              
     e( 28 - 28) =     11.13046  eV     1   --> A              
     e( 29 - 29) =     11.15431  eV     1   --> A              
     e( 30 - 30) =     12.16896  eV     1   --> A              

 **************************************************************************

 **************************************************************************

                    xk=(   0.03333,   0.01667,   0.00000  )

     Band symmetry, C_1 (1)     point group:

     e(  1 -  1) =    -27.25176  eV     1   --> A              
     e(  2 -  2) =    -27.20001  eV     1   --> A              
     e(  3 -  3) =    -21.54261  eV     1   --> A              
     e(  4 -  4) =    -18.12706  eV     1   --> A              
     e(  5 -  5) =    -12.12056  eV     1   --> A              
     e(  6 -  6) =     -9.35904  eV     1   --> A              
     e(  7 -  7) =     -6.23074  eV     1   --> A              
     e(  8 -  8) =     -5.70342  eV     1   --> A              
     e(  9 -  9) =     -5.69805  eV     1   --> A              
     e( 10 - 10) =     -5.45881  eV     1   --> A              
     e( 11 - 11) =     -5.41703  eV     1   --> A              
     e( 12 - 12) =     -3.22265  eV     1   --> A              
     e( 13 - 13) =     -3.17393  eV     1   --> A              
     e( 14 - 14) =     -1.99835  eV     1   --> A              
     e( 15 - 15) =     -1.93904  eV     1   --> A              
     e( 16 - 16) =      2.06217  eV     1   --> A              
     e( 17 - 17) =      4.56294  eV     1   --> A              
     e( 18 - 18) =      4.89686  eV     1   --> A              
     e( 19 - 19) =      4.92522  eV     1   --> A              
     e( 20 - 20) =      5.39367  eV     1   --> A              
     e( 21 - 21) =      5.68466  eV     1   --> A              
     e( 22 - 22) =      6.15938  eV     1   --> A              
     e( 23 - 23) =      6.24229  eV     1   --> A              
     e( 24 - 24) =      6.45701  eV     1   --> A              
     e( 25 - 25) =      7.54646  eV     1   --> A              
     e( 26 - 26) =      8.93314  eV     1   --> A              
     e( 27 - 27) =     10.14809  eV     1   --> A              
     e( 28 - 28) =     11.13483  eV     1   --> A              
     e( 29 - 29) =     11.14435  eV     1   --> A              
     e( 30 - 30) =     12.15394  eV     1   --> A              

 **************************************************************************

 **************************************************************************

                    xk=(   0.02667,   0.01333,   0.00000  )

     Band symmetry, C_1 (1)     point group:

     e(  1 -  1) =    -27.25536  eV     1   --> A              
     e(  2 -  2) =    -27.20343  eV     1   --> A              
     e(  3 -  3) =    -21.55060  eV     1   --> A              
     e(  4 -  4) =    -18.13387  eV     1   --> A              
     e(  5 -  5) =    -12.12585  eV     1   --> A              
     e(  6 -  6) =     -9.36072  eV     1   --> A              
     e(  7 -  7) =     -6.21216  eV     1   --> A              
     e(  8 -  8) =     -5.68991  eV     1   --> A              
     e(  9 -  9) =     -5.68702  eV     1   --> A              
     e( 10 - 10) =     -5.43852  eV     1   --> A              
     e( 11 - 11) =     -5.41120  eV     1   --> A              
     e( 12 - 12) =     -3.19487  eV     1   --> A              
     e( 13 - 13) =     -3.16327  eV     1   --> A              
     e( 14 - 14) =     -1.96682  eV     1   --> A              
     e( 15 - 15) =     -1.92850  eV     1   --> A              
     e( 16 - 16) =      2.04067  eV     1   --> A              
     e( 17 - 17) =      4.57120  eV     1   --> A              
     e( 18 - 18) =      4.87574  eV     1   --> A              
     e( 19 - 19) =      4.89496  eV     1   --> A              
     e( 20 - 20) =      5.38010  eV     1   --> A              
     e( 21 - 21) =      5.67300  eV     1   --> A              
     e( 22 - 22) =      6.15586  eV     1   --> A              
     e( 23 - 23) =      6.20904  eV     1   --> A              
     e( 24 - 24) =      6.44309  eV     1   --> A              
     e( 25 - 25) =      7.53435  eV     1   --> A              
     e( 26 - 26) =      8.92113  eV     1   --> A              
     e( 27 - 27) =     10.13732  eV     1   --> A              
     e( 28 - 28) =     11.13534  eV     1   --> A              
     e( 29 - 29) =     11.13913  eV     1   --> A              
     e( 30 - 30) =     12.14172  eV     1   --> A              

 **************************************************************************

 **************************************************************************

                    xk=(   0.02000,   0.01000,   0.00000  )

     Band symmetry, C_1 (1)     point group:

     e(  1 -  1) =    -27.25816  eV     1   --> A              
     e(  2 -  2) =    -27.20609  eV     1   --> A              
     e(  3 -  3) =    -21.55682  eV     1   --> A              
     e(  4 -  4) =    -18.13917  eV     1   --> A              
     e(  5 -  5) =    -12.12998  eV     1   --> A              
     e(  6 -  6) =     -9.36203  eV     1   --> A              
     e(  7 -  7) =     -6.19777  eV     1   --> A              
     e(  8 -  8) =     -5.67981  eV     1   --> A              
     e(  9 -  9) =     -5.67842  eV     1   --> A              
     e( 10 - 10) =     -5.42227  eV     1   --> A              
     e( 11 - 11) =     -5.40667  eV     1   --> A              
     e( 12 - 12) =     -3.17283  eV     1   --> A              
     e( 13 - 13) =     -3.15488  eV     1   --> A              
     e( 14 - 14) =     -1.94197  eV     1   --> A              
     e( 15 - 15) =     -1.92027  eV     1   --> A              
     e( 16 - 16) =      2.02358  eV     1   --> A              
     e( 17 - 17) =      4.57799  eV     1   --> A              
     e( 18 - 18) =      4.85930  eV     1   --> A              
     e( 19 - 19) =      4.87063  eV     1   --> A              
     e( 20 - 20) =      5.36956  eV     1   --> A              
     e( 21 - 21) =      5.66397  eV     1   --> A              
     e( 22 - 22) =      6.15301  eV     1   --> A              
     e( 23 - 23) =      6.18298  eV     1   --> A              
     e( 24 - 24) =      6.43249  eV     1   --> A              
     e( 25 - 25) =      7.52492  eV     1   --> A              
     e( 26 - 26) =      8.91179  eV     1   --> A              
     e( 27 - 27) =     10.12891  eV     1   --> A              
     e( 28 - 28) =     11.12934  eV     1   --> A              
     e( 29 - 29) =     11.14138  eV     1   --> A              
     e( 30 - 30) =     12.13226  eV     1   --> A              

 **************************************************************************

 **************************************************************************

                    xk=(   0.01333,   0.00667,   0.00000  )

     Band symmetry, C_1 (1)     point group:

     e(  1 -  1) =    -27.26016  eV     1   --> A              
     e(  2 -  2) =    -27.20800  eV     1   --> A              
     e(  3 -  3) =    -21.56126  eV     1   --> A              
     e(  4 -  4) =    -18.14296  eV     1   --> A              
     e(  5 -  5) =    -12.13293  eV     1   --> A              
     e(  6 -  6) =     -9.36297  eV     1   --> A              
     e(  7 -  7) =     -6.18753  eV     1   --> A              
     e(  8 -  8) =     -5.67280  eV     1   --> A              
     e(  9 -  9) =     -5.67226  eV     1   --> A              
     e( 10 - 10) =     -5.41043  eV     1   --> A              
     e( 11 - 11) =     -5.40343  eV     1   --> A              
     e( 12 - 12) =     -3.15687  eV     1   --> A              
     e( 13 - 13) =     -3.14882  eV     1   --> A              
     e( 14 - 14) =     -1.92405  eV     1   --> A              
     e( 15 - 15) =     -1.91436  eV     1   --> A              
     e( 16 - 16) =      2.01119  eV     1   --> A              
     e( 17 - 17) =      4.58311  eV     1   --> A              
     e( 18 - 18) =      4.84753  eV     1   --> A              
     e( 19 - 19) =      4.85276  eV     1   --> A              
     e( 20 - 20) =      5.36205  eV     1   --> A              
     e( 21 - 21) =      5.65755  eV     1   --> A              
     e( 22 - 22) =      6.15090  eV     1   --> A              
     e( 23 - 23) =      6.16425  eV     1   --> A              
     e( 24 - 24) =      6.42505  eV     1   --> A              
     e( 25 - 25) =      7.51818  eV     1   --> A              
     e( 26 - 26) =      8.90513  eV     1   --> A              
     e( 27 - 27) =     10.12289  eV     1   --> A              
     e( 28 - 28) =     11.12481  eV     1   --> A              
     e( 29 - 29) =     11.14318  eV     1   --> A              
     e( 30 - 30) =     12.12554  eV     1   --> A              

 **************************************************************************

 **************************************************************************

                    xk=(   0.00667,   0.00333,   0.00000  )

     Band symmetry, C_1 (1)     point group:

     e(  1 -  1) =    -27.26136  eV     1   --> A              
     e(  2 -  2) =    -27.20914  eV     1   --> A              
     e(  3 -  3) =    -21.56393  eV     1   --> A              
     e(  4 -  4) =    -18.14523  eV     1   --> A              
     e(  5 -  5) =    -12.13470  eV     1   --> A              
     e(  6 -  6) =     -9.36354  eV     1   --> A              
     e(  7 -  7) =     -6.18140  eV     1   --> A              
     e(  8 -  8) =     -5.66867  eV     1   --> A              
     e(  9 -  9) =     -5.66856  eV     1   --> A              
     e( 10 - 10) =     -5.40323  eV     1   --> A              
     e( 11 - 11) =     -5.40149  eV     1   --> A              
     e( 12 - 12) =     -3.14720  eV     1   --> A              
     e( 13 - 13) =     -3.14517  eV     1   --> A              
     e( 14 - 14) =     -1.91322  eV     1   --> A              
     e( 15 - 15) =     -1.91080  eV     1   --> A              
     e( 16 - 16) =      2.00367  eV     1   --> A              
     e( 17 - 17) =      4.58633  eV     1   --> A              
     e( 18 - 18) =      4.84047  eV     1   --> A              
     e( 19 - 19) =      4.84182  eV     1   --> A              
     e( 20 - 20) =      5.35754  eV     1   --> A              
     e( 21 - 21) =      5.65370  eV     1   --> A              
     e( 22 - 22) =      6.14960  eV     1   --> A              
     e( 23 - 23) =      6.15298  eV     1   --> A              
     e( 24 - 24) =      6.42064  eV     1   --> A              
     e( 25 - 25) =      7.51414  eV     1   --> A              
     e( 26 - 26) =      8.90113  eV     1   --> A              
     e( 27 - 27) =     10.11926  eV     1   --> A              
     e( 28 - 28) =     11.12208  eV     1   --> A              
     e( 29 - 29) =     11.14425  eV     1   --> A              
     e( 30 - 30) =     12.12151  eV     1   --> A              

 **************************************************************************

 **************************************************************************

                    xk=(   0.00000,   0.00000,   0.00000  )

     Band symmetry, C_1 (1)     point group:

     e(  1 -  1) =    -27.26176  eV     1   --> A              
     e(  2 -  2) =    -27.20953  eV     1   --> A              
     e(  3 -  3) =    -21.56481  eV     1   --> A              
     e(  4 -  4) =    -18.14599  eV     1   --> A              
     e(  5 -  5) =    -12.13529  eV     1   --> A              
     e(  6 -  6) =     -9.36373  eV     1   --> A              
     e(  7 -  7) =     -6.17936  eV     1   --> A              
     e(  8 -  9) =     -5.66733  eV     2   -->   2 A              
     e( 10 - 11) =     -5.40085  eV     2   -->   2 A              
     e( 12 - 13) =     -3.14397  eV     2   -->   2 A              
     e( 14 - 15) =     -1.90964  eV     2   -->   2 A              
     e( 16 - 16) =      2.00115  eV     1   --> A              
     e( 17 - 17) =      4.58742  eV     1   --> A              
     e( 18 - 19) =      4.83810  eV     2   -->   2 A              
     e( 20 - 20) =      5.35604  eV     1   --> A              
     e( 21 - 21) =      5.65242  eV     1   --> A              
     e( 22 - 23) =      6.14913  eV     2   -->   2 A              
     e( 24 - 24) =      6.41918  eV     1   --> A              
     e( 25 - 25) =      7.51279  eV     1   --> A              
     e( 26 - 26) =      8.89979  eV     1   --> A              
     e( 27 - 27) =     10.11804  eV     1   --> A              
     e( 28 - 28) =     11.12116  eV     1   --> A              
     e( 29 - 29) =     11.14460  eV     1   --> A              
     e( 30 - 30) =     12.12017  eV     1   --> A              

 **************************************************************************

     BANDS        :     55.42s CPU     26.36s WALL


   This run was terminated on:  17:40:46  29Nov2024            

=------------------------------------------------------------------------------=
   JOB DONE.
=------------------------------------------------------------------------------=
