
     Program PWSCF v.6.4.1 starts on 21Nov2024 at 15: 8:14 

     This program is part of the open-source Quantum ESPRESSO suite
     for quantum simulation of materials; please cite
         "P. Giannozzi et al., J. Phys.:Condens. Matter 21 395502 (2009);
         "P. Giannozzi et al., J. Phys.:Condens. Matter 29 465901 (2017);
          URL http://www.quantum-espresso.org", 
     in publications or presentations arising from this work. More details at
     http://www.quantum-espresso.org/quote

     Parallel version (MPI & OpenMP), running on      12 processor cores
     Number of MPI processes:                 1
     Threads/MPI process:                    12

     MPI processes distributed on     1 nodes
     Waiting for input...
     Reading input from standard input

     Current dimensions of program PWSCF are:
     Max number of different atomic species (ntypx) = 10
     Max number of k-points (npk) =  40000
     Max angular momentum in pseudopotentials (lmaxx) =  3
     Message from routine iosys:
     pot_extrapolation='first_order' not available, using 'atomic'
               file C.pbesol-n-kjpaw_psl.1.0.0.UPF: wavefunction(s)  2S 2P renormalized
               file F.pbesol-n-kjpaw_psl.1.0.0.UPF: wavefunction(s)  2S 2P renormalized

     Subspace diagonalization in iterative solution of the eigenvalue problem:
     a serial algorithm will be used


     G-vector sticks info
     --------------------
     sticks:   dense  smooth     PW     G-vecs:    dense   smooth      PW
     Sum         295     295     97                31423    31423    6287



     bravais-lattice index     =            0
     lattice parameter (alat)  =       4.8507  a.u.
     unit-cell volume          =     769.2439 (a.u.)^3
     number of atoms/cell      =            6
     number of atomic types    =            2
     number of electrons       =        30.00
     number of Kohn-Sham states=           19
     kinetic-energy cutoff     =      45.0000  Ry
     charge density cutoff     =     180.0000  Ry
     convergence threshold     =      1.0E-08
     mixing beta               =       0.4000
     number of iterations used =            8  plain     mixing
     Exchange-correlation      = SLA PW PSX PSC ( 1  4 10  8 0 0)
     nstep                     =         1000


     celldm(1)=   4.850737  celldm(2)=   0.000000  celldm(3)=   0.000000
     celldm(4)=   0.000000  celldm(5)=   0.000000  celldm(6)=   0.000000

     crystal axes: (cart. coord. in units of alat)
               a(1) = (   1.000000   0.000000   0.000000 )  
               a(2) = (   0.500000   0.866025   0.000000 )  
               a(3) = (   0.000640   0.000376   7.782340 )  

     reciprocal axes: (cart. coord. in units 2 pi/alat)
               b(1) = (  1.000000 -0.577350 -0.000054 )  
               b(2) = (  0.000000  1.154701 -0.000056 )  
               b(3) = (  0.000000  0.000000  0.128496 )  


     PseudoPot. # 1 for C  read from file:
     .\C.pbesol-n-kjpaw_psl.1.0.0.UPF
     MD5 check sum: f9b2fe17d1f478429498b05d17159f9e
     Pseudo is Projector augmented-wave + core cor, Zval =  4.0
     Generated using "atomic" code by A. Dal Corso v.6.3
     Shape of augmentation charge: PSQ
     Using radial grid of 1073 points,  4 beta functions with: 
                l(1) =   0
                l(2) =   0
                l(3) =   1
                l(4) =   1
     Q(r) pseudized with 0 coefficients 


     PseudoPot. # 2 for F  read from file:
     .\F.pbesol-n-kjpaw_psl.1.0.0.UPF
     MD5 check sum: d939582bcd23f1ece12cfc4fab8d9d36
     Pseudo is Projector augmented-wave + core cor, Zval =  7.0
     Generated using "atomic" code by A. Dal Corso v.6.3
     Shape of augmentation charge: PSQ
     Using radial grid of 1105 points,  4 beta functions with: 
                l(1) =   0
                l(2) =   0
                l(3) =   1
                l(4) =   1
     Q(r) pseudized with 0 coefficients 


     atomic species   valence    mass     pseudopotential
        C              4.00    12.01070     C ( 1.00)
        F              7.00    18.99840     F ( 1.00)

     No symmetry found


                                    s                        frac. trans.

      isym =  1     identity                                     

 cryst.   s( 1) = (     1          0          0      )
                  (     0          1          0      )
                  (     0          0          1      )

 cart.    s( 1) = (  1.0000000  0.0000000  0.0000000 )
                  (  0.0000000  1.0000000  0.0000000 )
                  (  0.0000000  0.0000000  1.0000000 )


   Cartesian axes

     site n.     atom                  positions (alat units)
         1           C   tau(   1) = (   0.0003519   0.0002070   3.9178512  )
         2           C   tau(   2) = (   0.5003526   0.2888824   4.1138039  )
         3           C   tau(   3) = (   1.0003491   0.5775541   4.9151223  )
         4           C   tau(   4) = (   0.5003488   0.2888789   4.7191654  )
         5           F   tau(   5) = (   0.0003452   0.0002019   3.3809522  )
         6           F   tau(   6) = (   1.0003518   0.5775569   5.4520245  )

   Crystallographic axes

     site n.     atom                  positions (cryst. coord.)
         1           C   tau(   1) = (  0.0000192  0.0000206  0.5034284  )
         2           C   tau(   2) = (  0.3333424  0.3333434  0.5286075  )
         3           C   tau(   3) = (  0.6666304  0.6666281  0.6315738  )
         4           C   tau(   4) = (  0.3333076  0.3333056  0.6063941  )
         5           F   tau(   5) = (  0.0000446  0.0000447  0.4344390  )
         6           F   tau(   6) = (  0.6666024  0.6666014  0.7005636  )

     number of k points=    74  Marzari-Vanderbilt smearing, width (Ry)=  0.0500
                       cart. coord. in units 2pi/alat
        k(    1) = (   0.0000000   0.0000000   0.0000000), wk =   0.0138889
        k(    2) = (   0.0000000   0.0962251  -0.0000046), wk =   0.0277778
        k(    3) = (   0.0000000   0.1924501  -0.0000093), wk =   0.0277778
        k(    4) = (   0.0000000   0.2886752  -0.0000139), wk =   0.0277778
        k(    5) = (   0.0000000   0.3849002  -0.0000186), wk =   0.0277778
        k(    6) = (   0.0000000   0.4811253  -0.0000232), wk =   0.0277778
        k(    7) = (   0.0000000  -0.5773503   0.0000279), wk =   0.0138889
        k(    8) = (   0.0833333  -0.0481125  -0.0000045), wk =   0.0277778
        k(    9) = (   0.0833333   0.0481125  -0.0000092), wk =   0.0277778
        k(   10) = (   0.0833333   0.1443376  -0.0000138), wk =   0.0277778
        k(   11) = (   0.0833333   0.2405626  -0.0000185), wk =   0.0277778
        k(   12) = (   0.0833333   0.3367877  -0.0000231), wk =   0.0277778
        k(   13) = (   0.0833333   0.4330127  -0.0000278), wk =   0.0277778
        k(   14) = (   0.0833333  -0.6254629   0.0000233), wk =   0.0277778
        k(   15) = (   0.0833333  -0.5292378   0.0000187), wk =   0.0277778
        k(   16) = (   0.0833333  -0.4330127   0.0000140), wk =   0.0277778
        k(   17) = (   0.0833333  -0.3367877   0.0000094), wk =   0.0277778
        k(   18) = (   0.0833333  -0.2405626   0.0000048), wk =   0.0277778
        k(   19) = (   0.0833333  -0.1443376   0.0000001), wk =   0.0277778
        k(   20) = (   0.1666667  -0.0962251  -0.0000091), wk =   0.0277778
        k(   21) = (   0.1666667  -0.0000000  -0.0000137), wk =   0.0277778
        k(   22) = (   0.1666667   0.0962250  -0.0000184), wk =   0.0277778
        k(   23) = (   0.1666667   0.1924501  -0.0000230), wk =   0.0277778
        k(   24) = (   0.1666667   0.2886751  -0.0000277), wk =   0.0277778
        k(   25) = (   0.1666667   0.3849002  -0.0000323), wk =   0.0277778
        k(   26) = (   0.1666667  -0.6735754   0.0000188), wk =   0.0277778
        k(   27) = (   0.1666667  -0.5773503   0.0000142), wk =   0.0277778
        k(   28) = (   0.1666667  -0.4811253   0.0000095), wk =   0.0277778
        k(   29) = (   0.1666667  -0.3849002   0.0000049), wk =   0.0277778
        k(   30) = (   0.1666667  -0.2886752   0.0000002), wk =   0.0277778
        k(   31) = (   0.1666667  -0.1924501  -0.0000044), wk =   0.0277778
        k(   32) = (   0.2500000  -0.1443376  -0.0000136), wk =   0.0277778
        k(   33) = (   0.2500000  -0.0481126  -0.0000183), wk =   0.0277778
        k(   34) = (   0.2500000   0.0481125  -0.0000229), wk =   0.0277778
        k(   35) = (   0.2500000   0.1443375  -0.0000275), wk =   0.0277778
        k(   36) = (   0.2500000   0.2405626  -0.0000322), wk =   0.0277778
        k(   37) = (   0.2500000   0.3367876  -0.0000368), wk =   0.0277778
        k(   38) = (   0.2500000  -0.7216879   0.0000143), wk =   0.0277778
        k(   39) = (   0.2500000  -0.6254629   0.0000096), wk =   0.0277778
        k(   40) = (   0.2500000  -0.5292378   0.0000050), wk =   0.0277778
        k(   41) = (   0.2500000  -0.4330128   0.0000003), wk =   0.0277778
        k(   42) = (   0.2500000  -0.3367877  -0.0000043), wk =   0.0277778
        k(   43) = (   0.2500000  -0.2405627  -0.0000090), wk =   0.0277778
        k(   44) = (   0.3333333  -0.1924501  -0.0000181), wk =   0.0277778
        k(   45) = (   0.3333333  -0.0962251  -0.0000228), wk =   0.0277778
        k(   46) = (   0.3333333  -0.0000000  -0.0000274), wk =   0.0277778
        k(   47) = (   0.3333333   0.0962250  -0.0000321), wk =   0.0277778
        k(   48) = (   0.3333333   0.1924501  -0.0000367), wk =   0.0277778
        k(   49) = (   0.3333333   0.2886751  -0.0000414), wk =   0.0277778
        k(   50) = (   0.3333333  -0.7698005   0.0000097), wk =   0.0277778
        k(   51) = (   0.3333333  -0.6735754   0.0000051), wk =   0.0277778
        k(   52) = (   0.3333333  -0.5773504   0.0000004), wk =   0.0277778
        k(   53) = (   0.3333333  -0.4811253  -0.0000042), wk =   0.0277778
        k(   54) = (   0.3333333  -0.3849003  -0.0000088), wk =   0.0277778
        k(   55) = (   0.3333333  -0.2886752  -0.0000135), wk =   0.0277778
        k(   56) = (   0.4166667  -0.2405627  -0.0000227), wk =   0.0277778
        k(   57) = (   0.4166667  -0.1443376  -0.0000273), wk =   0.0277778
        k(   58) = (   0.4166667  -0.0481126  -0.0000320), wk =   0.0277778
        k(   59) = (   0.4166667   0.0481125  -0.0000366), wk =   0.0277778
        k(   60) = (   0.4166667   0.1443375  -0.0000413), wk =   0.0277778
        k(   61) = (   0.4166667   0.2405626  -0.0000459), wk =   0.0277778
        k(   62) = (   0.4166667  -0.8179130   0.0000052), wk =   0.0277778
        k(   63) = (   0.4166667  -0.7216879   0.0000006), wk =   0.0277778
        k(   64) = (   0.4166667  -0.6254629  -0.0000041), wk =   0.0277778
        k(   65) = (   0.4166667  -0.5292378  -0.0000087), wk =   0.0277778
        k(   66) = (   0.4166667  -0.4330128  -0.0000134), wk =   0.0277778
        k(   67) = (   0.4166667  -0.3367877  -0.0000180), wk =   0.0277778
        k(   68) = (  -0.5000000   0.2886752   0.0000272), wk =   0.0138889
        k(   69) = (  -0.5000000   0.3849003   0.0000226), wk =   0.0277778
        k(   70) = (  -0.5000000   0.4811253   0.0000179), wk =   0.0277778
        k(   71) = (  -0.5000000   0.5773504   0.0000133), wk =   0.0277778
        k(   72) = (  -0.5000000   0.6735754   0.0000086), wk =   0.0277778
        k(   73) = (  -0.5000000   0.7698005   0.0000040), wk =   0.0277778
        k(   74) = (  -0.5000000  -0.2886751   0.0000551), wk =   0.0138889

                       cryst. coord.
        k(    1) = (   0.0000000   0.0000000   0.0000000), wk =   0.0138889
        k(    2) = (   0.0000000   0.0833333   0.0000000), wk =   0.0277778
        k(    3) = (   0.0000000   0.1666667   0.0000000), wk =   0.0277778
        k(    4) = (   0.0000000   0.2500000   0.0000000), wk =   0.0277778
        k(    5) = (   0.0000000   0.3333333   0.0000000), wk =   0.0277778
        k(    6) = (   0.0000000   0.4166667   0.0000000), wk =   0.0277778
        k(    7) = (   0.0000000  -0.5000000  -0.0000000), wk =   0.0138889
        k(    8) = (   0.0833333   0.0000000   0.0000000), wk =   0.0277778
        k(    9) = (   0.0833333   0.0833333   0.0000000), wk =   0.0277778
        k(   10) = (   0.0833333   0.1666667   0.0000000), wk =   0.0277778
        k(   11) = (   0.0833333   0.2500000   0.0000000), wk =   0.0277778
        k(   12) = (   0.0833333   0.3333333   0.0000000), wk =   0.0277778
        k(   13) = (   0.0833333   0.4166667   0.0000000), wk =   0.0277778
        k(   14) = (   0.0833333  -0.5000000   0.0000000), wk =   0.0277778
        k(   15) = (   0.0833333  -0.4166667   0.0000000), wk =   0.0277778
        k(   16) = (   0.0833333  -0.3333333   0.0000000), wk =   0.0277778
        k(   17) = (   0.0833333  -0.2500000   0.0000000), wk =   0.0277778
        k(   18) = (   0.0833333  -0.1666667   0.0000000), wk =   0.0277778
        k(   19) = (   0.0833333  -0.0833333   0.0000000), wk =   0.0277778
        k(   20) = (   0.1666667   0.0000000   0.0000000), wk =   0.0277778
        k(   21) = (   0.1666667   0.0833333   0.0000000), wk =   0.0277778
        k(   22) = (   0.1666667   0.1666667   0.0000000), wk =   0.0277778
        k(   23) = (   0.1666667   0.2500000   0.0000000), wk =   0.0277778
        k(   24) = (   0.1666667   0.3333333   0.0000000), wk =   0.0277778
        k(   25) = (   0.1666667   0.4166667   0.0000000), wk =   0.0277778
        k(   26) = (   0.1666667  -0.5000000   0.0000000), wk =   0.0277778
        k(   27) = (   0.1666667  -0.4166667   0.0000000), wk =   0.0277778
        k(   28) = (   0.1666667  -0.3333333   0.0000000), wk =   0.0277778
        k(   29) = (   0.1666667  -0.2500000   0.0000000), wk =   0.0277778
        k(   30) = (   0.1666667  -0.1666667   0.0000000), wk =   0.0277778
        k(   31) = (   0.1666667  -0.0833333   0.0000000), wk =   0.0277778
        k(   32) = (   0.2500000   0.0000000   0.0000000), wk =   0.0277778
        k(   33) = (   0.2500000   0.0833333   0.0000000), wk =   0.0277778
        k(   34) = (   0.2500000   0.1666667   0.0000000), wk =   0.0277778
        k(   35) = (   0.2500000   0.2500000   0.0000000), wk =   0.0277778
        k(   36) = (   0.2500000   0.3333333   0.0000000), wk =   0.0277778
        k(   37) = (   0.2500000   0.4166667   0.0000000), wk =   0.0277778
        k(   38) = (   0.2500000  -0.5000000   0.0000000), wk =   0.0277778
        k(   39) = (   0.2500000  -0.4166667   0.0000000), wk =   0.0277778
        k(   40) = (   0.2500000  -0.3333333   0.0000000), wk =   0.0277778
        k(   41) = (   0.2500000  -0.2500000   0.0000000), wk =   0.0277778
        k(   42) = (   0.2500000  -0.1666667   0.0000000), wk =   0.0277778
        k(   43) = (   0.2500000  -0.0833333   0.0000000), wk =   0.0277778
        k(   44) = (   0.3333333   0.0000000   0.0000000), wk =   0.0277778
        k(   45) = (   0.3333333   0.0833333   0.0000000), wk =   0.0277778
        k(   46) = (   0.3333333   0.1666667   0.0000000), wk =   0.0277778
        k(   47) = (   0.3333333   0.2500000   0.0000000), wk =   0.0277778
        k(   48) = (   0.3333333   0.3333333   0.0000000), wk =   0.0277778
        k(   49) = (   0.3333333   0.4166667   0.0000000), wk =   0.0277778
        k(   50) = (   0.3333333  -0.5000000   0.0000000), wk =   0.0277778
        k(   51) = (   0.3333333  -0.4166667   0.0000000), wk =   0.0277778
        k(   52) = (   0.3333333  -0.3333333   0.0000000), wk =   0.0277778
        k(   53) = (   0.3333333  -0.2500000   0.0000000), wk =   0.0277778
        k(   54) = (   0.3333333  -0.1666667   0.0000000), wk =   0.0277778
        k(   55) = (   0.3333333  -0.0833333   0.0000000), wk =   0.0277778
        k(   56) = (   0.4166667   0.0000000   0.0000000), wk =   0.0277778
        k(   57) = (   0.4166667   0.0833333   0.0000000), wk =   0.0277778
        k(   58) = (   0.4166667   0.1666667   0.0000000), wk =   0.0277778
        k(   59) = (   0.4166667   0.2500000   0.0000000), wk =   0.0277778
        k(   60) = (   0.4166667   0.3333333   0.0000000), wk =   0.0277778
        k(   61) = (   0.4166667   0.4166667   0.0000000), wk =   0.0277778
        k(   62) = (   0.4166667  -0.5000000  -0.0000000), wk =   0.0277778
        k(   63) = (   0.4166667  -0.4166667  -0.0000000), wk =   0.0277778
        k(   64) = (   0.4166667  -0.3333333   0.0000000), wk =   0.0277778
        k(   65) = (   0.4166667  -0.2500000   0.0000000), wk =   0.0277778
        k(   66) = (   0.4166667  -0.1666667   0.0000000), wk =   0.0277778
        k(   67) = (   0.4166667  -0.0833333   0.0000000), wk =   0.0277778
        k(   68) = (  -0.5000000   0.0000000  -0.0000000), wk =   0.0138889
        k(   69) = (  -0.5000000   0.0833333  -0.0000000), wk =   0.0277778
        k(   70) = (  -0.5000000   0.1666667  -0.0000000), wk =   0.0277778
        k(   71) = (  -0.5000000   0.2500000  -0.0000000), wk =   0.0277778
        k(   72) = (  -0.5000000   0.3333333  -0.0000000), wk =   0.0277778
        k(   73) = (  -0.5000000   0.4166667  -0.0000000), wk =   0.0277778
        k(   74) = (  -0.5000000  -0.5000000  -0.0000000), wk =   0.0138889

     Dense  grid:    31423 G-vectors     FFT dimensions: (  24,  24, 162)

     Dynamical RAM for                 wfc:       1.14 MB

     Dynamical RAM for     wfc (w. buffer):      85.26 MB

     Dynamical RAM for           str. fact:       0.96 MB

     Dynamical RAM for           local pot:       0.00 MB

     Dynamical RAM for          nlocal pot:       2.87 MB

     Dynamical RAM for                qrad:       0.95 MB

     Dynamical RAM for          rho,v,vnew:       3.57 MB

     Dynamical RAM for               rhoin:       1.19 MB

     Dynamical RAM for            rho*nmix:       7.67 MB

     Dynamical RAM for           G-vectors:       2.04 MB

     Dynamical RAM for          h,s,v(r/c):       0.02 MB

     Dynamical RAM for          <psi|beta>:       0.01 MB

     Dynamical RAM for      wfcinit/wfcrot:       2.89 MB

     Dynamical RAM for           addusdens:      22.54 MB

     Dynamical RAM for          addusforce:      28.53 MB

     Dynamical RAM for         addusstress:      23.97 MB

     Estimated static dynamical RAM per process >     109.51 MB

     Estimated max dynamical RAM per process >     138.05 MB

     Check: negative core charge=   -0.000027

     Initial potential from superposition of free atoms

     starting charge   29.99983, renormalised to   30.00000

     negative rho (up, down):  2.042E-03 0.000E+00
     Starting wfcs are   24 randomized atomic wfcs
     Checking if some PAW data can be deallocated... 

     total cpu time spent up to now is        9.3 secs

     Self-consistent Calculation

     iteration #  1     ecut=    45.00 Ry     beta= 0.40
     CG style diagonalization
     ethr =  1.00E-02,  avg # of iterations =  3.1

     negative rho (up, down):  2.738E-03 0.000E+00

     total cpu time spent up to now is       22.2 secs

     total energy              =    -189.91222950 Ry
     Harris-Foulkes estimate   =    -190.04414530 Ry
     estimated scf accuracy    <       0.33962326 Ry

     iteration #  2     ecut=    45.00 Ry     beta= 0.40
     CG style diagonalization
     ethr =  1.13E-03,  avg # of iterations =  3.3

     negative rho (up, down):  3.592E-03 0.000E+00

     total cpu time spent up to now is       33.5 secs

     total energy              =    -189.93623252 Ry
     Harris-Foulkes estimate   =    -189.95672827 Ry
     estimated scf accuracy    <       0.05827310 Ry

     iteration #  3     ecut=    45.00 Ry     beta= 0.40
     CG style diagonalization
     ethr =  1.94E-04,  avg # of iterations =  3.4

     negative rho (up, down):  4.228E-03 0.000E+00

     total cpu time spent up to now is       45.4 secs

     total energy              =    -189.93765100 Ry
     Harris-Foulkes estimate   =    -189.94116146 Ry
     estimated scf accuracy    <       0.01005662 Ry

     iteration #  4     ecut=    45.00 Ry     beta= 0.40
     CG style diagonalization
     c_bands:  1 eigenvalues not converged
     c_bands:  1 eigenvalues not converged
     c_bands:  1 eigenvalues not converged
     c_bands:  1 eigenvalues not converged
     ethr =  3.35E-05,  avg # of iterations =  4.2

     negative rho (up, down):  4.367E-03 0.000E+00

     total cpu time spent up to now is       60.1 secs

     total energy              =    -189.93895916 Ry
     Harris-Foulkes estimate   =    -189.93913106 Ry
     estimated scf accuracy    <       0.00071703 Ry

     iteration #  5     ecut=    45.00 Ry     beta= 0.40
     CG style diagonalization
     c_bands:  1 eigenvalues not converged
     c_bands:  1 eigenvalues not converged
     c_bands:  1 eigenvalues not converged
     c_bands:  1 eigenvalues not converged
     c_bands:  1 eigenvalues not converged
     c_bands:  1 eigenvalues not converged
     c_bands:  1 eigenvalues not converged
     c_bands:  1 eigenvalues not converged
     ethr =  2.39E-06,  avg # of iterations =  4.6

     negative rho (up, down):  4.424E-03 0.000E+00

     total cpu time spent up to now is       76.4 secs

     total energy              =    -189.93911842 Ry
     Harris-Foulkes estimate   =    -189.93916770 Ry
     estimated scf accuracy    <       0.00012372 Ry

     iteration #  6     ecut=    45.00 Ry     beta= 0.40
     CG style diagonalization
     c_bands:  1 eigenvalues not converged
     ethr =  4.12E-07,  avg # of iterations =  3.9

     negative rho (up, down):  4.444E-03 0.000E+00

     total cpu time spent up to now is       89.7 secs

     total energy              =    -189.93914500 Ry
     Harris-Foulkes estimate   =    -189.93916540 Ry
     estimated scf accuracy    <       0.00006040 Ry

     iteration #  7     ecut=    45.00 Ry     beta= 0.40
     CG style diagonalization
     ethr =  2.01E-07,  avg # of iterations =  3.4

     negative rho (up, down):  4.454E-03 0.000E+00

     total cpu time spent up to now is      101.4 secs

     total energy              =    -189.93915451 Ry
     Harris-Foulkes estimate   =    -189.93915518 Ry
     estimated scf accuracy    <       0.00000200 Ry

     iteration #  8     ecut=    45.00 Ry     beta= 0.40
     CG style diagonalization
     ethr =  6.66E-09,  avg # of iterations =  4.2

     negative rho (up, down):  4.454E-03 0.000E+00

     total cpu time spent up to now is      117.1 secs

     total energy              =    -189.93915554 Ry
     Harris-Foulkes estimate   =    -189.93915590 Ry
     estimated scf accuracy    <       0.00000101 Ry

     iteration #  9     ecut=    45.00 Ry     beta= 0.40
     CG style diagonalization
     ethr =  3.35E-09,  avg # of iterations =  3.4

     negative rho (up, down):  4.454E-03 0.000E+00

     total cpu time spent up to now is      128.9 secs

     total energy              =    -189.93915575 Ry
     Harris-Foulkes estimate   =    -189.93915575 Ry
     estimated scf accuracy    <       0.00000003 Ry

     iteration # 10     ecut=    45.00 Ry     beta= 0.40
     CG style diagonalization
     ethr =  9.64E-11,  avg # of iterations =  4.3

     negative rho (up, down):  4.454E-03 0.000E+00

     total cpu time spent up to now is      144.2 secs

     total energy              =    -189.93915577 Ry
     Harris-Foulkes estimate   =    -189.93915577 Ry
     estimated scf accuracy    <       0.00000002 Ry

     iteration # 11     ecut=    45.00 Ry     beta= 0.40
     CG style diagonalization
     ethr =  6.37E-11,  avg # of iterations =  3.4

     negative rho (up, down):  4.454E-03 0.000E+00

     total cpu time spent up to now is      156.5 secs

     End of self-consistent calculation

          k = 0.0000 0.0000 0.0000 (  3897 PWs)   bands (ev):

   -27.2870 -27.2385 -21.4924 -18.0658 -12.1335  -9.4039  -6.2389  -5.8157
    -5.8157  -5.5467  -5.5467  -3.2866  -3.2866  -2.0346  -2.0346   1.9377
     4.2458   4.6017   4.6018

     occupation numbers 
     1.0000   1.0000   1.0000   1.0000   1.0000   1.0000   1.0000   1.0000
     1.0000   1.0000   1.0000   1.0423   1.0423   0.5063   0.5063   0.0000
     0.0000   0.0000   0.0000

          k = 0.0000 0.0962-0.0000 (  3887 PWs)   bands (ev):

   -27.2248 -27.1793 -21.3467 -17.9418 -12.0408  -9.3785  -6.6227  -6.1223
    -6.0095  -5.8075  -5.6509  -3.7203  -3.4597  -2.5617  -2.2145   2.2795
     4.1910   4.8357   4.9744

     occupation numbers 
     1.0000   1.0000   1.0000   1.0000   1.0000   1.0000   1.0000   1.0000
     1.0000   1.0000   1.0000   1.0067   1.0228   1.0006   0.7041   0.0000
     0.0000   0.0000   0.0000

          k = 0.0000 0.1925-0.0000 (  3883 PWs)   bands (ev):

   -27.0513 -27.0140 -20.9103 -17.5716 -11.7818  -9.3453  -7.8316  -7.2157
    -6.5149  -6.2286  -5.9480  -4.3975  -3.8032  -3.6744  -2.6388   2.7846
     4.0153   5.4553   5.9457

     occupation numbers 
     1.0000   1.0000   1.0000   1.0000   1.0000   1.0000   1.0000   1.0000
     1.0000   1.0000   1.0000   1.0001   1.0043   1.0085   1.0371   0.0000
     0.0000   0.0000   0.0000

          k = 0.0000 0.2887-0.0000 (  3913 PWs)   bands (ev):

   -26.8053 -26.7790 -20.1866 -16.9614 -11.4657  -9.9003  -9.2320  -8.4305
    -7.1456  -6.8455  -6.3602  -5.0487  -4.6256  -4.1206  -3.0882   2.8212
     4.1459   5.7443   7.0802

     occupation numbers 
     1.0000   1.0000   1.0000   1.0000   1.0000   1.0000   1.0000   1.0000
     1.0000   1.0000   1.0000   1.0000   1.0000   1.0005   1.0690   0.0000
     0.0000   0.0000   0.0000

          k = 0.0000 0.3849-0.0000 (  3937 PWs)   bands (ev):

   -26.5478 -26.5323 -19.1868 -16.1275 -12.2239 -10.8717 -10.2002  -8.8869
    -7.7106  -7.4208  -6.7651  -5.9513  -4.9785  -4.3604  -3.4375   2.6506
     4.3538   5.4733   7.1678

     occupation numbers 
     1.0000   1.0000   1.0000   1.0000   1.0000   1.0000   1.0000   1.0000
     1.0000   1.0000   1.0000   1.0000   1.0000   1.0001   1.0249   0.0000
     0.0000   0.0000   0.0000

          k = 0.0000 0.4811-0.0000 (  3939 PWs)   bands (ev):

   -26.3509 -26.3437 -17.9612 -15.1767 -13.9625 -12.1201 -10.0745  -9.1046
    -8.0882  -7.7392  -7.0524  -6.5864  -5.1870  -4.5107  -3.6513   2.6294
     4.2065   5.0170   7.4245

     occupation numbers 
     1.0000   1.0000   1.0000   1.0000   1.0000   1.0000   1.0000   1.0000
     1.0000   1.0000   1.0000   1.0000   1.0000   1.0000   1.0096   0.0000
     0.0000   0.0000   0.0000

          k = 0.0000-0.5774 0.0000 (  3930 PWs)   bands (ev):

   -26.2763 -26.2735 -17.0182 -15.4314 -13.9492 -13.2164  -9.8245  -9.2919
    -8.2198  -7.8175  -7.1554  -6.8113  -5.2681  -4.5622  -3.7230   2.6966
     3.9244   4.9413   7.8271

     occupation numbers 
     1.0000   1.0000   1.0000   1.0000   1.0000   1.0000   1.0000   1.0000
     1.0000   1.0000   1.0000   1.0000   1.0000   1.0000   1.0066   0.0000
     0.0000   0.0000   0.0000

          k = 0.0833-0.0481-0.0000 (  3887 PWs)   bands (ev):

   -27.2248 -27.1793 -21.3467 -17.9418 -12.0408  -9.3785  -6.6227  -6.1223
    -6.0095  -5.8075  -5.6509  -3.7203  -3.4597  -2.5617  -2.2145   2.2795
     4.1910   4.8357   4.9744

     occupation numbers 
     1.0000   1.0000   1.0000   1.0000   1.0000   1.0000   1.0000   1.0000
     1.0000   1.0000   1.0000   1.0067   1.0228   1.0006   0.7041   0.0000
     0.0000   0.0000   0.0000

          k = 0.0833 0.0481-0.0000 (  3887 PWs)   bands (ev):

   -27.2248 -27.1793 -21.3467 -17.9418 -12.0408  -9.3785  -6.6226  -6.1223
    -6.0095  -5.8075  -5.6509  -3.7203  -3.4597  -2.5617  -2.2145   2.2795
     4.1910   4.8358   4.9744

     occupation numbers 
     1.0000   1.0000   1.0000   1.0000   1.0000   1.0000   1.0000   1.0000
     1.0000   1.0000   1.0000   1.0067   1.0228   1.0006   0.7041   0.0000
     0.0000   0.0000   0.0000

          k = 0.0833 0.1443-0.0000 (  3897 PWs)   bands (ev):

   -27.1069 -27.0670 -21.0556 -17.6947 -11.8643  -9.3454  -7.3473  -6.7948
    -6.5336  -6.1871  -5.7694  -4.1215  -3.9341  -3.1450  -2.6619   2.7674
     4.2086   5.2676   5.2850

     occupation numbers 
     1.0000   1.0000   1.0000   1.0000   1.0000   1.0000   1.0000   1.0000
     1.0000   1.0000   1.0000   1.0005   1.0019   1.0616   1.0458   0.0000
     0.0000   0.0000   0.0000

          k = 0.0833 0.2406-0.0000 (  3910 PWs)   bands (ev):

   -26.8968 -26.8665 -20.4753 -17.2041 -11.5608  -9.4228  -8.7245  -7.9165
    -7.2821  -6.7700  -6.1062  -4.7681  -4.4144  -3.8869  -3.2049   3.2797
     4.2345   5.9148   6.1271

     occupation numbers 
     1.0000   1.0000   1.0000   1.0000   1.0000   1.0000   1.0000   1.0000
     1.0000   1.0000   1.0000   1.0000   1.0001   1.0026   1.0533   0.0000
     0.0000   0.0000   0.0000

          k = 0.0833 0.3368-0.0000 (  3928 PWs)   bands (ev):

   -26.6442 -26.6247 -19.6119 -16.4795 -11.5143 -10.5248  -9.7420  -8.7323
    -7.9591  -7.3530  -6.6464  -5.5726  -4.8287  -4.3349  -3.5920   3.3042
     4.5212   6.0600   6.9990

     occupation numbers 
     1.0000   1.0000   1.0000   1.0000   1.0000   1.0000   1.0000   1.0000
     1.0000   1.0000   1.0000   1.0000   1.0000   1.0001   1.0128   0.0000
     0.0000   0.0000   0.0000

          k = 0.0833 0.4330-0.0000 (  3937 PWs)   bands (ev):

   -26.4158 -26.4055 -18.4886 -15.5541 -13.0595 -11.3889 -10.1761  -9.0278
    -8.4155  -7.7197  -7.1784  -6.2635  -5.1758  -4.5147  -3.8526   3.2561
     4.6345   5.6577   7.3947

     occupation numbers 
     1.0000   1.0000   1.0000   1.0000   1.0000   1.0000   1.0000   1.0000
     1.0000   1.0000   1.0000   1.0000   1.0000   1.0000   1.0032   0.0000
     0.0000   0.0000   0.0000

          k = 0.0833-0.6255 0.0000 (  3940 PWs)   bands (ev):

   -26.2789 -26.2750 -17.2462 -15.0517 -14.1266 -12.7486  -9.8698  -9.2627
    -8.6674  -7.8266  -7.5068  -6.6551  -5.3637  -4.5981  -3.9880   3.4058
     4.1978   5.5243   7.6700

     occupation numbers 
     1.0000   1.0000   1.0000   1.0000   1.0000   1.0000   1.0000   1.0000
     1.0000   1.0000   1.0000   1.0000   1.0000   1.0000   1.0014   0.0000
     0.0000   0.0000   0.0000

          k = 0.0833-0.5292 0.0000 (  3940 PWs)   bands (ev):

   -26.2789 -26.2750 -17.2462 -15.0517 -14.1266 -12.7486  -9.8698  -9.2627
    -8.6674  -7.8266  -7.5068  -6.6551  -5.3637  -4.5981  -3.9880   3.4058
     4.1978   5.5243   7.6701

     occupation numbers 
     1.0000   1.0000   1.0000   1.0000   1.0000   1.0000   1.0000   1.0000
     1.0000   1.0000   1.0000   1.0000   1.0000   1.0000   1.0014   0.0000
     0.0000   0.0000   0.0000

          k = 0.0833-0.4330 0.0000 (  3938 PWs)   bands (ev):

   -26.4158 -26.4055 -18.4886 -15.5541 -13.0595 -11.3889 -10.1761  -9.0278
    -8.4155  -7.7197  -7.1784  -6.2635  -5.1758  -4.5147  -3.8526   3.2561
     4.6345   5.6577   7.3949

     occupation numbers 
     1.0000   1.0000   1.0000   1.0000   1.0000   1.0000   1.0000   1.0000
     1.0000   1.0000   1.0000   1.0000   1.0000   1.0000   1.0032   0.0000
     0.0000   0.0000   0.0000

          k = 0.0833-0.3368 0.0000 (  3928 PWs)   bands (ev):

   -26.6442 -26.6247 -19.6119 -16.4795 -11.5143 -10.5248  -9.7420  -8.7323
    -7.9591  -7.3530  -6.6464  -5.5726  -4.8287  -4.3349  -3.5920   3.3042
     4.5212   6.0601   6.9989

     occupation numbers 
     1.0000   1.0000   1.0000   1.0000   1.0000   1.0000   1.0000   1.0000
     1.0000   1.0000   1.0000   1.0000   1.0000   1.0001   1.0128   0.0000
     0.0000   0.0000   0.0000

          k = 0.0833-0.2406 0.0000 (  3910 PWs)   bands (ev):

   -26.8968 -26.8665 -20.4753 -17.2041 -11.5608  -9.4228  -8.7245  -7.9165
    -7.2821  -6.7700  -6.1062  -4.7681  -4.4144  -3.8869  -3.2049   3.2798
     4.2345   5.9151   6.1261

     occupation numbers 
     1.0000   1.0000   1.0000   1.0000   1.0000   1.0000   1.0000   1.0000
     1.0000   1.0000   1.0000   1.0000   1.0001   1.0026   1.0533   0.0000
     0.0000   0.0000   0.0000

          k = 0.0833-0.1443 0.0000 (  3897 PWs)   bands (ev):

   -27.1069 -27.0670 -21.0556 -17.6947 -11.8643  -9.3454  -7.3473  -6.7948
    -6.5336  -6.1872  -5.7694  -4.1215  -3.9341  -3.1450  -2.6619   2.7674
     4.2087   5.2676   5.2853

     occupation numbers 
     1.0000   1.0000   1.0000   1.0000   1.0000   1.0000   1.0000   1.0000
     1.0000   1.0000   1.0000   1.0005   1.0019   1.0616   1.0458   0.0000
     0.0000   0.0000   0.0000

          k = 0.1667-0.0962-0.0000 (  3883 PWs)   bands (ev):

   -27.0513 -27.0140 -20.9103 -17.5716 -11.7818  -9.3453  -7.8316  -7.2157
    -6.5149  -6.2286  -5.9480  -4.3975  -3.8032  -3.6744  -2.6388   2.7846
     4.0153   5.4542   5.9457

     occupation numbers 
     1.0000   1.0000   1.0000   1.0000   1.0000   1.0000   1.0000   1.0000
     1.0000   1.0000   1.0000   1.0001   1.0043   1.0085   1.0371   0.0000
     0.0000   0.0000   0.0000

          k = 0.1667-0.0000-0.0000 (  3897 PWs)   bands (ev):

   -27.1069 -27.0670 -21.0556 -17.6947 -11.8643  -9.3454  -7.3473  -6.7948
    -6.5336  -6.1871  -5.7694  -4.1215  -3.9340  -3.1450  -2.6619   2.7674
     4.2086   5.2674   5.2850

     occupation numbers 
     1.0000   1.0000   1.0000   1.0000   1.0000   1.0000   1.0000   1.0000
     1.0000   1.0000   1.0000   1.0005   1.0019   1.0616   1.0458   0.0000
     0.0000   0.0000   0.0000

          k = 0.1667 0.0962-0.0000 (  3883 PWs)   bands (ev):

   -27.0513 -27.0140 -20.9103 -17.5716 -11.7818  -9.3453  -7.8316  -7.2156
    -6.5149  -6.2287  -5.9480  -4.3975  -3.8032  -3.6745  -2.6388   2.7846
     4.0152   5.4547   5.9457

     occupation numbers 
     1.0000   1.0000   1.0000   1.0000   1.0000   1.0000   1.0000   1.0000
     1.0000   1.0000   1.0000   1.0001   1.0043   1.0085   1.0371   0.0000
     0.0000   0.0000   0.0000

          k = 0.1667 0.1925-0.0000 (  3910 PWs)   bands (ev):

   -26.8968 -26.8665 -20.4753 -17.2041 -11.5608  -9.4228  -8.7245  -7.9165
    -7.2821  -6.7700  -6.1062  -4.7681  -4.4144  -3.8869  -3.2049   3.2797
     4.2345   5.9148   6.1249

     occupation numbers 
     1.0000   1.0000   1.0000   1.0000   1.0000   1.0000   1.0000   1.0000
     1.0000   1.0000   1.0000   1.0000   1.0001   1.0026   1.0533   0.0000
     0.0000   0.0000   0.0000

          k = 0.1667 0.2887-0.0000 (  3915 PWs)   bands (ev):

   -26.6795 -26.6583 -19.7543 -16.5977 -11.3620  -9.8731  -9.7655  -8.5294
    -8.2476  -7.6894  -6.4870  -5.4998  -4.6436  -4.2143  -3.9844   4.2045
     4.4359   6.3846   7.1452

     occupation numbers 
     1.0000   1.0000   1.0000   1.0000   1.0000   1.0000   1.0000   1.0000
     1.0000   1.0000   1.0000   1.0000   1.0000   1.0003   1.0014   0.0000
     0.0000   0.0000   0.0000

          k = 0.1667 0.3849-0.0000 (  3923 PWs)   bands (ev):

   -26.4543 -26.4420 -18.7606 -15.7683 -12.0974 -10.9258 -10.0970  -9.1801
    -8.8676  -8.2467  -7.0882  -6.0666  -5.0562  -4.5745  -4.3199   4.3200
     5.0577   6.9027   7.2273

     occupation numbers 
     1.0000   1.0000   1.0000   1.0000   1.0000   1.0000   1.0000   1.0000
     1.0000   1.0000   1.0000   1.0000   1.0000   1.0000   1.0001   0.0000
     0.0000   0.0000   0.0000

          k = 0.1667-0.6736 0.0000 (  3927 PWs)   bands (ev):

   -26.2838 -26.2782 -17.5493 -14.8174 -13.6577 -12.0343 -10.0115  -9.7064
    -9.1500  -8.3113  -7.6744  -6.4011  -5.5045  -4.6663  -4.5159   4.2945
     5.3149   6.8302   7.1536

     occupation numbers 
     1.0000   1.0000   1.0000   1.0000   1.0000   1.0000   1.0000   1.0000
     1.0000   1.0000   1.0000   1.0000   1.0000   1.0000   1.0000   0.0000
     0.0000   0.0000   0.0000

          k = 0.1667-0.5774 0.0000 (  3928 PWs)   bands (ev):

   -26.2196 -26.2175 -16.6308 -15.0387 -13.5708 -13.0745 -10.2067  -9.5146
    -9.2830  -8.3147  -7.9357  -6.5150  -5.6678  -4.6488  -4.6307   4.3377
     5.1843   6.8995   7.1672

     occupation numbers 
     1.0000   1.0000   1.0000   1.0000   1.0000   1.0000   1.0000   1.0000
     1.0000   1.0000   1.0000   1.0000   1.0000   1.0000   1.0000   0.0000
     0.0000   0.0000   0.0000

          k = 0.1667-0.4811 0.0000 (  3927 PWs)   bands (ev):

   -26.2838 -26.2782 -17.5493 -14.8174 -13.6577 -12.0343 -10.0115  -9.7063
    -9.1500  -8.3113  -7.6744  -6.4011  -5.5046  -4.6663  -4.5159   4.2945
     5.3149   6.8302   7.1537

     occupation numbers 
     1.0000   1.0000   1.0000   1.0000   1.0000   1.0000   1.0000   1.0000
     1.0000   1.0000   1.0000   1.0000   1.0000   1.0000   1.0000   0.0000
     0.0000   0.0000   0.0000

          k = 0.1667-0.3849 0.0000 (  3923 PWs)   bands (ev):

   -26.4543 -26.4420 -18.7606 -15.7683 -12.0974 -10.9258 -10.0970  -9.1801
    -8.8676  -8.2467  -7.0882  -6.0666  -5.0562  -4.5745  -4.3199   4.3201
     5.0577   6.9026   7.2273

     occupation numbers 
     1.0000   1.0000   1.0000   1.0000   1.0000   1.0000   1.0000   1.0000
     1.0000   1.0000   1.0000   1.0000   1.0000   1.0000   1.0001   0.0000
     0.0000   0.0000   0.0000

          k = 0.1667-0.2887 0.0000 (  3915 PWs)   bands (ev):

   -26.6795 -26.6583 -19.7543 -16.5977 -11.3620  -9.8731  -9.7655  -8.5295
    -8.2476  -7.6894  -6.4870  -5.4997  -4.6436  -4.2143  -3.9845   4.2045
     4.4359   6.3845   7.1453

     occupation numbers 
     1.0000   1.0000   1.0000   1.0000   1.0000   1.0000   1.0000   1.0000
     1.0000   1.0000   1.0000   1.0000   1.0000   1.0003   1.0014   0.0000
     0.0000   0.0000   0.0000

          k = 0.1667-0.1925-0.0000 (  3910 PWs)   bands (ev):

   -26.8968 -26.8665 -20.4753 -17.2041 -11.5608  -9.4228  -8.7245  -7.9165
    -7.2821  -6.7700  -6.1062  -4.7681  -4.4144  -3.8869  -3.2049   3.2798
     4.2345   5.9148   6.1257

     occupation numbers 
     1.0000   1.0000   1.0000   1.0000   1.0000   1.0000   1.0000   1.0000
     1.0000   1.0000   1.0000   1.0000   1.0001   1.0026   1.0533   0.0000
     0.0000   0.0000   0.0000

          k = 0.2500-0.1443-0.0000 (  3913 PWs)   bands (ev):

   -26.8053 -26.7790 -20.1866 -16.9614 -11.4657  -9.9003  -9.2320  -8.4305
    -7.1456  -6.8455  -6.3602  -5.0487  -4.6256  -4.1206  -3.0882   2.8212
     4.1459   5.7443   6.4824

     occupation numbers 
     1.0000   1.0000   1.0000   1.0000   1.0000   1.0000   1.0000   1.0000
     1.0000   1.0000   1.0000   1.0000   1.0000   1.0005   1.0690   0.0000
     0.0000   0.0000   0.0000

          k = 0.2500-0.0481-0.0000 (  3910 PWs)   bands (ev):

   -26.8968 -26.8665 -20.4753 -17.2041 -11.5608  -9.4228  -8.7245  -7.9165
    -7.2821  -6.7700  -6.1062  -4.7681  -4.4144  -3.8869  -3.2049   3.2797
     4.2345   5.9148   6.1249

     occupation numbers 
     1.0000   1.0000   1.0000   1.0000   1.0000   1.0000   1.0000   1.0000
     1.0000   1.0000   1.0000   1.0000   1.0001   1.0026   1.0533   0.0000
     0.0000   0.0000   0.0000

          k = 0.2500 0.0481-0.0000 (  3910 PWs)   bands (ev):

   -26.8968 -26.8665 -20.4753 -17.2041 -11.5608  -9.4228  -8.7245  -7.9164
    -7.2821  -6.7700  -6.1062  -4.7681  -4.4144  -3.8869  -3.2049   3.2797
     4.2345   5.9148   6.1257

     occupation numbers 
     1.0000   1.0000   1.0000   1.0000   1.0000   1.0000   1.0000   1.0000
     1.0000   1.0000   1.0000   1.0000   1.0001   1.0026   1.0533   0.0000
     0.0000   0.0000   0.0000

          k = 0.2500 0.1443-0.0000 (  3913 PWs)   bands (ev):

   -26.8053 -26.7790 -20.1866 -16.9614 -11.4657  -9.9003  -9.2320  -8.4304
    -7.1456  -6.8456  -6.3602  -5.0487  -4.6256  -4.1206  -3.0882   2.8211
     4.1459   5.7443   7.0800

     occupation numbers 
     1.0000   1.0000   1.0000   1.0000   1.0000   1.0000   1.0000   1.0000
     1.0000   1.0000   1.0000   1.0000   1.0000   1.0005   1.0690   0.0000
     0.0000   0.0000   0.0000

          k = 0.2500 0.2406-0.0000 (  3928 PWs)   bands (ev):

   -26.6442 -26.6247 -19.6119 -16.4795 -11.5143 -10.5248  -9.7420  -8.7323
    -7.9591  -7.3530  -6.6464  -5.5726  -4.8287  -4.3348  -3.5920   3.3042
     4.5211   6.0601   6.9989

     occupation numbers 
     1.0000   1.0000   1.0000   1.0000   1.0000   1.0000   1.0000   1.0000
     1.0000   1.0000   1.0000   1.0000   1.0000   1.0001   1.0128   0.0000
     0.0000   0.0000   0.0000

          k = 0.2500 0.3368-0.0000 (  3923 PWs)   bands (ev):

   -26.4543 -26.4420 -18.7606 -15.7683 -12.0974 -10.9258 -10.0970  -9.1801
    -8.8676  -8.2467  -7.0882  -6.0666  -5.0562  -4.5744  -4.3199   4.3200
     5.0577   6.9027   7.2273

     occupation numbers 
     1.0000   1.0000   1.0000   1.0000   1.0000   1.0000   1.0000   1.0000
     1.0000   1.0000   1.0000   1.0000   1.0000   1.0000   1.0001   0.0000
     0.0000   0.0000   0.0000

          k = 0.2500-0.7217 0.0000 (  3924 PWs)   bands (ev):

   -26.2862 -26.2799 -17.6648 -14.8618 -12.9658 -11.9191 -10.0468  -9.9748
    -9.5696  -8.5215  -7.6387  -6.3186  -5.3457  -5.0792  -4.5798   4.5928
     5.8723   6.7115   8.7780

     occupation numbers 
     1.0000   1.0000   1.0000   1.0000   1.0000   1.0000   1.0000   1.0000
     1.0000   1.0000   1.0000   1.0000   1.0000   1.0000   1.0000   0.0000
     0.0000   0.0000   0.0000

          k = 0.2500-0.6255 0.0000 (  3912 PWs)   bands (ev):

   -26.1872 -26.1849 -16.4887 -14.3160 -13.6634 -12.7742 -10.9306 -10.2911
    -9.1854  -8.5962  -8.1312  -6.2834  -5.7714  -5.2926  -4.6565   4.6731
     5.7111   7.4781   8.3696

     occupation numbers 
     1.0000   1.0000   1.0000   1.0000   1.0000   1.0000   1.0000   1.0000
     1.0000   1.0000   1.0000   1.0000   1.0000   1.0000   1.0000   0.0000
     0.0000   0.0000   0.0000

          k = 0.2500-0.5292 0.0000 (  3912 PWs)   bands (ev):

   -26.1872 -26.1849 -16.4887 -14.3160 -13.6634 -12.7742 -10.9306 -10.2911
    -9.1854  -8.5962  -8.1312  -6.2833  -5.7714  -5.2926  -4.6565   4.6731
     5.7111   7.4781   8.3698

     occupation numbers 
     1.0000   1.0000   1.0000   1.0000   1.0000   1.0000   1.0000   1.0000
     1.0000   1.0000   1.0000   1.0000   1.0000   1.0000   1.0000   0.0000
     0.0000   0.0000   0.0000

          k = 0.2500-0.4330 0.0000 (  3923 PWs)   bands (ev):

   -26.2862 -26.2799 -17.6648 -14.8618 -12.9658 -11.9192 -10.0468  -9.9748
    -9.5696  -8.5215  -7.6387  -6.3186  -5.3457  -5.0792  -4.5799   4.5929
     5.8723   6.7115   8.7782

     occupation numbers 
     1.0000   1.0000   1.0000   1.0000   1.0000   1.0000   1.0000   1.0000
     1.0000   1.0000   1.0000   1.0000   1.0000   1.0000   1.0000   0.0000
     0.0000   0.0000   0.0000

          k = 0.2500-0.3368-0.0000 (  3923 PWs)   bands (ev):

   -26.4543 -26.4420 -18.7606 -15.7683 -12.0974 -10.9258 -10.0970  -9.1801
    -8.8676  -8.2467  -7.0882  -6.0666  -5.0562  -4.5745  -4.3199   4.3201
     5.0577   6.9027   7.2272

     occupation numbers 
     1.0000   1.0000   1.0000   1.0000   1.0000   1.0000   1.0000   1.0000
     1.0000   1.0000   1.0000   1.0000   1.0000   1.0000   1.0001   0.0000
     0.0000   0.0000   0.0000

          k = 0.2500-0.2406-0.0000 (  3928 PWs)   bands (ev):

   -26.6442 -26.6247 -19.6119 -16.4795 -11.5143 -10.5248  -9.7420  -8.7323
    -7.9591  -7.3530  -6.6464  -5.5726  -4.8287  -4.3349  -3.5920   3.3042
     4.5212   6.0600   6.9989

     occupation numbers 
     1.0000   1.0000   1.0000   1.0000   1.0000   1.0000   1.0000   1.0000
     1.0000   1.0000   1.0000   1.0000   1.0000   1.0001   1.0128   0.0000
     0.0000   0.0000   0.0000

          k = 0.3333-0.1925-0.0000 (  3937 PWs)   bands (ev):

   -26.5478 -26.5323 -19.1868 -16.1275 -12.2239 -10.8717 -10.2002  -8.8869
    -7.7106  -7.4208  -6.7651  -5.9513  -4.9785  -4.3604  -3.4375   2.6506
     4.3538   5.4733   7.1676

     occupation numbers 
     1.0000   1.0000   1.0000   1.0000   1.0000   1.0000   1.0000   1.0000
     1.0000   1.0000   1.0000   1.0000   1.0000   1.0001   1.0249   0.0000
     0.0000   0.0000   0.0000

          k = 0.3333-0.0962-0.0000 (  3928 PWs)   bands (ev):

   -26.6442 -26.6247 -19.6119 -16.4795 -11.5143 -10.5248  -9.7420  -8.7323
    -7.9591  -7.3530  -6.6464  -5.5726  -4.8287  -4.3349  -3.5920   3.3042
     4.5212   6.0600   6.9990

     occupation numbers 
     1.0000   1.0000   1.0000   1.0000   1.0000   1.0000   1.0000   1.0000
     1.0000   1.0000   1.0000   1.0000   1.0000   1.0001   1.0128   0.0000
     0.0000   0.0000   0.0000

          k = 0.3333-0.0000-0.0000 (  3915 PWs)   bands (ev):

   -26.6795 -26.6583 -19.7543 -16.5977 -11.3620  -9.8731  -9.7655  -8.5294
    -8.2476  -7.6894  -6.4870  -5.4998  -4.6436  -4.2143  -3.9844   4.2045
     4.4358   6.3845   7.1451

     occupation numbers 
     1.0000   1.0000   1.0000   1.0000   1.0000   1.0000   1.0000   1.0000
     1.0000   1.0000   1.0000   1.0000   1.0000   1.0003   1.0014   0.0000
     0.0000   0.0000   0.0000

          k = 0.3333 0.0962-0.0000 (  3928 PWs)   bands (ev):

   -26.6442 -26.6247 -19.6119 -16.4795 -11.5143 -10.5248  -9.7420  -8.7323
    -7.9591  -7.3530  -6.6465  -5.5726  -4.8287  -4.3348  -3.5920   3.3042
     4.5211   6.0601   6.9991

     occupation numbers 
     1.0000   1.0000   1.0000   1.0000   1.0000   1.0000   1.0000   1.0000
     1.0000   1.0000   1.0000   1.0000   1.0000   1.0001   1.0128   0.0000
     0.0000   0.0000   0.0000

          k = 0.3333 0.1925-0.0000 (  3937 PWs)   bands (ev):

   -26.5478 -26.5323 -19.1868 -16.1275 -12.2239 -10.8717 -10.2002  -8.8869
    -7.7106  -7.4209  -6.7651  -5.9513  -4.9785  -4.3604  -3.4375   2.6506
     4.3538   5.4733   7.1677

     occupation numbers 
     1.0000   1.0000   1.0000   1.0000   1.0000   1.0000   1.0000   1.0000
     1.0000   1.0000   1.0000   1.0000   1.0000   1.0001   1.0249   0.0000
     0.0000   0.0000   0.0000

          k = 0.3333 0.2887-0.0000 (  3938 PWs)   bands (ev):

   -26.4158 -26.4055 -18.4886 -15.5541 -13.0595 -11.3889 -10.1761  -9.0278
    -8.4155  -7.7197  -7.1784  -6.2635  -5.1758  -4.5147  -3.8526   3.2561
     4.6344   5.6577   7.3947

     occupation numbers 
     1.0000   1.0000   1.0000   1.0000   1.0000   1.0000   1.0000   1.0000
     1.0000   1.0000   1.0000   1.0000   1.0000   1.0000   1.0032   0.0000
     0.0000   0.0000   0.0000

          k = 0.3333-0.7698 0.0000 (  3927 PWs)   bands (ev):

   -26.2838 -26.2782 -17.5493 -14.8174 -13.6577 -12.0343 -10.0115  -9.7064
    -9.1500  -8.3113  -7.6744  -6.4011  -5.5046  -4.6663  -4.5159   4.2945
     5.3149   6.8303   7.1537

     occupation numbers 
     1.0000   1.0000   1.0000   1.0000   1.0000   1.0000   1.0000   1.0000
     1.0000   1.0000   1.0000   1.0000   1.0000   1.0000   1.0000   0.0000
     0.0000   0.0000   0.0000

          k = 0.3333-0.6736 0.0000 (  3912 PWs)   bands (ev):

   -26.1872 -26.1849 -16.4887 -14.3160 -13.6634 -12.7742 -10.9306 -10.2911
    -9.1853  -8.5962  -8.1312  -6.2833  -5.7714  -5.2926  -4.6565   4.6730
     5.7111   7.4781   8.3699

     occupation numbers 
     1.0000   1.0000   1.0000   1.0000   1.0000   1.0000   1.0000   1.0000
     1.0000   1.0000   1.0000   1.0000   1.0000   1.0000   1.0000   0.0000
     0.0000   0.0000   0.0000

          k = 0.3333-0.5774 0.0000 (  3885 PWs)   bands (ev):

   -26.1514 -26.1512 -15.8664 -13.9895 -13.9893 -12.8914 -11.1087 -11.1087
    -8.6840  -8.6421  -8.6418  -5.9241  -5.8608  -5.8606  -4.6764   5.1302
     5.1304   8.3362   9.0183

     occupation numbers 
     1.0000   1.0000   1.0000   1.0000   1.0000   1.0000   1.0000   1.0000
     1.0000   1.0000   1.0000   1.0000   1.0000   1.0000   1.0000   0.0000
     0.0000   0.0000   0.0000

          k = 0.3333-0.4811-0.0000 (  3912 PWs)   bands (ev):

   -26.1872 -26.1849 -16.4887 -14.3160 -13.6634 -12.7742 -10.9306 -10.2911
    -9.1854  -8.5962  -8.1312  -6.2833  -5.7714  -5.2926  -4.6565   4.6731
     5.7111   7.4781   8.3697

     occupation numbers 
     1.0000   1.0000   1.0000   1.0000   1.0000   1.0000   1.0000   1.0000
     1.0000   1.0000   1.0000   1.0000   1.0000   1.0000   1.0000   0.0000
     0.0000   0.0000   0.0000

          k = 0.3333-0.3849-0.0000 (  3927 PWs)   bands (ev):

   -26.2838 -26.2782 -17.5493 -14.8174 -13.6577 -12.0343 -10.0115  -9.7063
    -9.1500  -8.3113  -7.6744  -6.4011  -5.5045  -4.6663  -4.5159   4.2945
     5.3149   6.8302   7.1536

     occupation numbers 
     1.0000   1.0000   1.0000   1.0000   1.0000   1.0000   1.0000   1.0000
     1.0000   1.0000   1.0000   1.0000   1.0000   1.0000   1.0000   0.0000
     0.0000   0.0000   0.0000

          k = 0.3333-0.2887-0.0000 (  3938 PWs)   bands (ev):

   -26.4158 -26.4055 -18.4886 -15.5541 -13.0595 -11.3889 -10.1761  -9.0278
    -8.4155  -7.7197  -7.1784  -6.2635  -5.1758  -4.5147  -3.8526   3.2561
     4.6345   5.6577   7.3955

     occupation numbers 
     1.0000   1.0000   1.0000   1.0000   1.0000   1.0000   1.0000   1.0000
     1.0000   1.0000   1.0000   1.0000   1.0000   1.0000   1.0032   0.0000
     0.0000   0.0000   0.0000

          k = 0.4167-0.2406-0.0000 (  3939 PWs)   bands (ev):

   -26.3509 -26.3437 -17.9612 -15.1767 -13.9625 -12.1201 -10.0745  -9.1046
    -8.0882  -7.7392  -7.0525  -6.5864  -5.1870  -4.5107  -3.6513   2.6294
     4.2065   5.0170   7.4245

     occupation numbers 
     1.0000   1.0000   1.0000   1.0000   1.0000   1.0000   1.0000   1.0000
     1.0000   1.0000   1.0000   1.0000   1.0000   1.0000   1.0096   0.0000
     0.0000   0.0000   0.0000

          k = 0.4167-0.1443-0.0000 (  3937 PWs)   bands (ev):

   -26.4158 -26.4055 -18.4886 -15.5541 -13.0595 -11.3889 -10.1761  -9.0278
    -8.4155  -7.7197  -7.1784  -6.2635  -5.1758  -4.5147  -3.8526   3.2561
     4.6345   5.6577   7.3946

     occupation numbers 
     1.0000   1.0000   1.0000   1.0000   1.0000   1.0000   1.0000   1.0000
     1.0000   1.0000   1.0000   1.0000   1.0000   1.0000   1.0032   0.0000
     0.0000   0.0000   0.0000

          k = 0.4167-0.0481-0.0000 (  3923 PWs)   bands (ev):

   -26.4543 -26.4420 -18.7606 -15.7683 -12.0974 -10.9258 -10.0970  -9.1801
    -8.8676  -8.2467  -7.0882  -6.0666  -5.0562  -4.5745  -4.3199   4.3200
     5.0577   6.9027   7.2274

     occupation numbers 
     1.0000   1.0000   1.0000   1.0000   1.0000   1.0000   1.0000   1.0000
     1.0000   1.0000   1.0000   1.0000   1.0000   1.0000   1.0001   0.0000
     0.0000   0.0000   0.0000

          k = 0.4167 0.0481-0.0000 (  3923 PWs)   bands (ev):

   -26.4543 -26.4420 -18.7606 -15.7683 -12.0974 -10.9258 -10.0970  -9.1801
    -8.8676  -8.2467  -7.0882  -6.0666  -5.0562  -4.5744  -4.3199   4.3200
     5.0577   6.9028   7.2273

     occupation numbers 
     1.0000   1.0000   1.0000   1.0000   1.0000   1.0000   1.0000   1.0000
     1.0000   1.0000   1.0000   1.0000   1.0000   1.0000   1.0001   0.0000
     0.0000   0.0000   0.0000

          k = 0.4167 0.1443-0.0000 (  3938 PWs)   bands (ev):

   -26.4158 -26.4055 -18.4886 -15.5541 -13.0595 -11.3889 -10.1761  -9.0278
    -8.4155  -7.7197  -7.1784  -6.2635  -5.1758  -4.5147  -3.8526   3.2561
     4.6345   5.6577   7.3946

     occupation numbers 
     1.0000   1.0000   1.0000   1.0000   1.0000   1.0000   1.0000   1.0000
     1.0000   1.0000   1.0000   1.0000   1.0000   1.0000   1.0032   0.0000
     0.0000   0.0000   0.0000

          k = 0.4167 0.2406-0.0000 (  3939 PWs)   bands (ev):

   -26.3509 -26.3437 -17.9612 -15.1767 -13.9625 -12.1201 -10.0744  -9.1046
    -8.0882  -7.7393  -7.0524  -6.5864  -5.1870  -4.5107  -3.6513   2.6294
     4.2065   5.0170   7.4245

     occupation numbers 
     1.0000   1.0000   1.0000   1.0000   1.0000   1.0000   1.0000   1.0000
     1.0000   1.0000   1.0000   1.0000   1.0000   1.0000   1.0096   0.0000
     0.0000   0.0000   0.0000

          k = 0.4167-0.8179 0.0000 (  3940 PWs)   bands (ev):

   -26.2789 -26.2750 -17.2462 -15.0517 -14.1266 -12.7486  -9.8698  -9.2627
    -8.6674  -7.8266  -7.5068  -6.6551  -5.3637  -4.5981  -3.9879   3.4057
     4.1978   5.5244   7.6698

     occupation numbers 
     1.0000   1.0000   1.0000   1.0000   1.0000   1.0000   1.0000   1.0000
     1.0000   1.0000   1.0000   1.0000   1.0000   1.0000   1.0014   0.0000
     0.0000   0.0000   0.0000

          k = 0.4167-0.7217 0.0000 (  3928 PWs)   bands (ev):

   -26.2196 -26.2175 -16.6308 -15.0387 -13.5708 -13.0746 -10.2067  -9.5146
    -9.2830  -8.3147  -7.9357  -6.5150  -5.6678  -4.6488  -4.6306   4.3377
     5.1843   6.8996   7.1672

     occupation numbers 
     1.0000   1.0000   1.0000   1.0000   1.0000   1.0000   1.0000   1.0000
     1.0000   1.0000   1.0000   1.0000   1.0000   1.0000   1.0000   0.0000
     0.0000   0.0000   0.0000

          k = 0.4167-0.6255-0.0000 (  3912 PWs)   bands (ev):

   -26.1872 -26.1849 -16.4887 -14.3160 -13.6634 -12.7742 -10.9306 -10.2911
    -9.1853  -8.5962  -8.1312  -6.2833  -5.7714  -5.2926  -4.6565   4.6730
     5.7112   7.4782   8.3699

     occupation numbers 
     1.0000   1.0000   1.0000   1.0000   1.0000   1.0000   1.0000   1.0000
     1.0000   1.0000   1.0000   1.0000   1.0000   1.0000   1.0000   0.0000
     0.0000   0.0000   0.0000

          k = 0.4167-0.5292-0.0000 (  3912 PWs)   bands (ev):

   -26.1872 -26.1849 -16.4887 -14.3160 -13.6634 -12.7742 -10.9306 -10.2911
    -9.1854  -8.5962  -8.1312  -6.2834  -5.7714  -5.2926  -4.6565   4.6730
     5.7111   7.4781   8.3698

     occupation numbers 
     1.0000   1.0000   1.0000   1.0000   1.0000   1.0000   1.0000   1.0000
     1.0000   1.0000   1.0000   1.0000   1.0000   1.0000   1.0000   0.0000
     0.0000   0.0000   0.0000

          k = 0.4167-0.4330-0.0000 (  3928 PWs)   bands (ev):

   -26.2196 -26.2175 -16.6308 -15.0387 -13.5708 -13.0745 -10.2067  -9.5146
    -9.2830  -8.3147  -7.9357  -6.5150  -5.6678  -4.6488  -4.6307   4.3377
     5.1843   6.8995   7.1672

     occupation numbers 
     1.0000   1.0000   1.0000   1.0000   1.0000   1.0000   1.0000   1.0000
     1.0000   1.0000   1.0000   1.0000   1.0000   1.0000   1.0000   0.0000
     0.0000   0.0000   0.0000

          k = 0.4167-0.3368-0.0000 (  3940 PWs)   bands (ev):

   -26.2789 -26.2750 -17.2462 -15.0517 -14.1266 -12.7486  -9.8698  -9.2627
    -8.6674  -7.8266  -7.5068  -6.6551  -5.3637  -4.5981  -3.9880   3.4058
     4.1978   5.5243   7.6700

     occupation numbers 
     1.0000   1.0000   1.0000   1.0000   1.0000   1.0000   1.0000   1.0000
     1.0000   1.0000   1.0000   1.0000   1.0000   1.0000   1.0014   0.0000
     0.0000   0.0000   0.0000

          k =-0.5000 0.2887 0.0000 (  3930 PWs)   bands (ev):

   -26.2763 -26.2735 -17.0182 -15.4314 -13.9492 -13.2164  -9.8245  -9.2919
    -8.2198  -7.8175  -7.1554  -6.8113  -5.2681  -4.5622  -3.7230   2.6966
     3.9244   4.9413   7.8265

     occupation numbers 
     1.0000   1.0000   1.0000   1.0000   1.0000   1.0000   1.0000   1.0000
     1.0000   1.0000   1.0000   1.0000   1.0000   1.0000   1.0066   0.0000
     0.0000   0.0000   0.0000

          k =-0.5000 0.3849 0.0000 (  3940 PWs)   bands (ev):

   -26.2789 -26.2750 -17.2462 -15.0517 -14.1266 -12.7486  -9.8698  -9.2627
    -8.6674  -7.8266  -7.5068  -6.6551  -5.3637  -4.5981  -3.9880   3.4057
     4.1978   5.5244   7.6701

     occupation numbers 
     1.0000   1.0000   1.0000   1.0000   1.0000   1.0000   1.0000   1.0000
     1.0000   1.0000   1.0000   1.0000   1.0000   1.0000   1.0014   0.0000
     0.0000   0.0000   0.0000

          k =-0.5000 0.4811 0.0000 (  3927 PWs)   bands (ev):

   -26.2838 -26.2782 -17.5493 -14.8174 -13.6577 -12.0343 -10.0115  -9.7064
    -9.1500  -8.3113  -7.6744  -6.4011  -5.5045  -4.6663  -4.5159   4.2945
     5.3149   6.8302   7.1536

     occupation numbers 
     1.0000   1.0000   1.0000   1.0000   1.0000   1.0000   1.0000   1.0000
     1.0000   1.0000   1.0000   1.0000   1.0000   1.0000   1.0000   0.0000
     0.0000   0.0000   0.0000

          k =-0.5000 0.5774 0.0000 (  3924 PWs)   bands (ev):

   -26.2862 -26.2799 -17.6648 -14.8618 -12.9658 -11.9191 -10.0468  -9.9748
    -9.5696  -8.5215  -7.6387  -6.3186  -5.3457  -5.0792  -4.5798   4.5928
     5.8724   6.7116   8.7785

     occupation numbers 
     1.0000   1.0000   1.0000   1.0000   1.0000   1.0000   1.0000   1.0000
     1.0000   1.0000   1.0000   1.0000   1.0000   1.0000   1.0000   0.0000
     0.0000   0.0000   0.0000

          k =-0.5000 0.6736 0.0000 (  3927 PWs)   bands (ev):

   -26.2838 -26.2782 -17.5493 -14.8174 -13.6577 -12.0343 -10.0115  -9.7064
    -9.1500  -8.3113  -7.6744  -6.4011  -5.5046  -4.6663  -4.5159   4.2945
     5.3149   6.8302   7.1536

     occupation numbers 
     1.0000   1.0000   1.0000   1.0000   1.0000   1.0000   1.0000   1.0000
     1.0000   1.0000   1.0000   1.0000   1.0000   1.0000   1.0000   0.0000
     0.0000   0.0000   0.0000

          k =-0.5000 0.7698 0.0000 (  3940 PWs)   bands (ev):

   -26.2789 -26.2750 -17.2462 -15.0517 -14.1266 -12.7486  -9.8698  -9.2627
    -8.6674  -7.8266  -7.5068  -6.6551  -5.3637  -4.5981  -3.9879   3.4057
     4.1977   5.5244   7.6698

     occupation numbers 
     1.0000   1.0000   1.0000   1.0000   1.0000   1.0000   1.0000   1.0000
     1.0000   1.0000   1.0000   1.0000   1.0000   1.0000   1.0014   0.0000
     0.0000   0.0000   0.0000

          k =-0.5000-0.2887 0.0001 (  3930 PWs)   bands (ev):

   -26.2763 -26.2735 -17.0182 -15.4314 -13.9491 -13.2164  -9.8244  -9.2919
    -8.2198  -7.8175  -7.1554  -6.8113  -5.2681  -4.5622  -3.7230   2.6966
     3.9243   4.9413   7.8262

     occupation numbers 
     1.0000   1.0000   1.0000   1.0000   1.0000   1.0000   1.0000   1.0000
     1.0000   1.0000   1.0000   1.0000   1.0000   1.0000   1.0066   0.0000
     0.0000   0.0000   0.0000

     the Fermi energy is    -1.9340 ev

!    total energy              =    -189.93915577 Ry
     Harris-Foulkes estimate   =    -189.93915577 Ry
     estimated scf accuracy    <          2.2E-09 Ry

     total all-electron energy =      -701.911270 Ry

     The total energy is the sum of the following terms:

     one-electron contribution =   -1506.86988821 Ry
     hartree contribution      =     763.06583664 Ry
     xc contribution           =     -37.16189225 Ry
     ewald contribution        =     636.01910718 Ry
     one-center paw contrib.   =     -44.99676392 Ry
      -> PAW hartree energy AE =     117.52484860 Ry
      -> PAW hartree energy PS =    -117.44512771 Ry
      -> PAW xc energy AE      =     -80.45604210 Ry
      -> PAW xc energy PS      =      35.37955729 Ry
      -> total E_H with PAW    =     763.14555753 Ry
      -> total E_XC with PAW   =     -82.23837706 Ry
     smearing contrib. (-TS)   =       0.00444479 Ry

     convergence has been achieved in  11 iterations

     negative rho (up, down):  4.454E-03 0.000E+00

     Forces acting on atoms (cartesian axes, Ry/au):

     atom    1 type  1   force =    -0.00000668   -0.00000448   -0.01125906
     atom    2 type  1   force =    -0.00000976   -0.00000626    0.00330083
     atom    3 type  1   force =     0.00000432    0.00000313    0.01091309
     atom    4 type  1   force =     0.00000399    0.00000294   -0.00325254
     atom    5 type  2   force =     0.00000764    0.00000482    0.01885721
     atom    6 type  2   force =     0.00000050   -0.00000015   -0.01855952
     The non-local contrib.  to forces
     atom    1 type  1   force =    -0.00000510   -0.00000440   -0.40429442
     atom    2 type  1   force =    -0.00000658   -0.00000473    0.08533028
     atom    3 type  1   force =     0.00000325    0.00000329    0.40405392
     atom    4 type  1   force =     0.00000430    0.00000344   -0.08554013
     atom    5 type  2   force =     0.00004634    0.00003357    3.17660093
     atom    6 type  2   force =    -0.00002526   -0.00002177   -3.17690832
     The ionic contribution  to forces
     atom    1 type  1   force =     0.00006601    0.00004732  -13.36767802
     atom    2 type  1   force =    -0.00000457    0.00000014   -9.40120984
     atom    3 type  1   force =    -0.00002607   -0.00002490   13.36783775
     atom    4 type  1   force =    -0.00000452   -0.00000517    9.40118888
     atom    5 type  2   force =    -0.00005247   -0.00003943  -66.85280486
     atom    6 type  2   force =     0.00002161    0.00002204   66.85266609
     The local contribution  to forces
     atom    1 type  1   force =    -0.00006150   -0.00004387   13.75152596
     atom    2 type  1   force =     0.00000499    0.00000042    9.31951906
     atom    3 type  1   force =     0.00002157    0.00002149  -13.75143514
     atom    4 type  1   force =     0.00000353    0.00000427   -9.31928598
     atom    5 type  2   force =     0.00001396    0.00001073   63.70512159
     atom    6 type  2   force =    -0.00000095   -0.00000335  -63.70495030
     The core correction contribution to forces
     atom    1 type  1   force =    -0.00000817   -0.00000473    0.00897016
     atom    2 type  1   force =    -0.00000571   -0.00000332   -0.00057044
     atom    3 type  1   force =     0.00000342    0.00000201   -0.00990877
     atom    4 type  1   force =    -0.00000147   -0.00000080    0.00003033
     atom    5 type  2   force =    -0.00000210   -0.00000124   -0.01024848
     atom    6 type  2   force =     0.00000296    0.00000173    0.01026545
     The Hubbard contrib.    to forces
     atom    1 type  1   force =     0.00000000    0.00000000    0.00000000
     atom    2 type  1   force =     0.00000000    0.00000000    0.00000000
     atom    3 type  1   force =     0.00000000    0.00000000    0.00000000
     atom    4 type  1   force =     0.00000000    0.00000000    0.00000000
     atom    5 type  2   force =     0.00000000    0.00000000    0.00000000
     atom    6 type  2   force =     0.00000000    0.00000000    0.00000000
     The SCF correction term to forces
     atom    1 type  1   force =    -0.00000003   -0.00000003   -0.00005850
     atom    2 type  1   force =    -0.00000001    0.00000001   -0.00004399
     atom    3 type  1   force =     0.00000005    0.00000003    0.00008957
     atom    4 type  1   force =     0.00000004   -0.00000001    0.00007861
     atom    5 type  2   force =    -0.00000020   -0.00000003   -0.00008773
     atom    6 type  2   force =     0.00000004   -0.00000002    0.00009179

     Total force =     0.031103     Total SCF correction =     0.000189


     Computing stress (Cartesian axis) and pressure


     negative rho (up, down):  4.454E-03 0.000E+00
          total   stress  (Ry/bohr**3)                   (kbar)     P=  -24.16
  -0.00015248  -0.00000001  -0.00000001        -22.43     -0.00     -0.00
  -0.00000001  -0.00015247  -0.00000000         -0.00    -22.43     -0.00
  -0.00000001  -0.00000000  -0.00018772         -0.00     -0.00    -27.61

     kinetic stress (kbar)   9162.54     -0.00     -0.01
                               -0.00   9162.54     -0.01
                               -0.01     -0.01   8323.66

     local   stress (kbar)-286803.77      0.01     -0.03
                                0.01-286803.79     -0.02
                               -0.03     -0.02 276366.65

     nonloc. stress (kbar)   3143.75      0.00     -0.00
                                0.00   3143.75     -0.00
                               -0.00     -0.00   2879.23

     hartree stress (kbar) 141379.54     -0.00      0.01
                               -0.00 141379.54      0.00
                                0.01      0.00-136835.47

     exc-cor stress (kbar)  -1130.13     -0.00     -0.00
                               -0.00  -1130.13     -0.00
                               -0.00     -0.00  -1126.66

     corecor stress (kbar)   -939.70      0.00      0.00
                                0.00   -939.70      0.00
                                0.00      0.00   -932.34

     ewald   stress (kbar) 135165.36     -0.01      0.03
                               -0.01 135165.37      0.02
                                0.03      0.02-148702.69

     hubbard stress (kbar)      0.00      0.00      0.00
                                0.00      0.00      0.00
                                0.00      0.00      0.00

     london  stress (kbar)      0.00      0.00      0.00
                                0.00      0.00      0.00
                                0.00      0.00      0.00

     DFT-D3  stress (kbar)      0.00      0.00      0.00
                                0.00      0.00      0.00
                                0.00      0.00      0.00

     XDM     stress (kbar)      0.00      0.00      0.00
                                0.00      0.00      0.00
                                0.00      0.00      0.00

     dft-nl  stress (kbar)      0.00      0.00      0.00
                                0.00      0.00      0.00
                                0.00      0.00      0.00

     TS-vdW  stress (kbar)      0.00      0.00      0.00
                                0.00      0.00      0.00
                                0.00      0.00      0.00

     3D-RISM stress (kbar)      0.00      0.00      0.00
                                0.00      0.00      0.00
                                0.00      0.00      0.00



     BFGS Geometry Optimization

     number of scf cycles    =   1
     number of bfgs steps    =   0

     enthalpy           new  =    -189.9391557676 Ry

     new trust radius        =       0.0211456424 bohr
     new conv_thr            =       0.0000000100 Ry

     new unit-cell volume =    763.39043 a.u.^3 (   113.12279 Ang^3 )
     density =      1.26298 g/cm^3

CELL_PARAMETERS (angstrom)
   2.557114382  -0.000000471   0.000000000
   1.278557078   2.214526124   0.000000000
   0.001637632   0.000960786  19.976486115

ATOMIC_POSITIONS (crystal)
C        0.000018519   0.000019633   0.503130147
C        0.333341069   0.333341859   0.528694986
C        0.666630842   0.666628742   0.631862884
C        0.333308133   0.333306334   0.606307952
F        0.000045435   0.000045638   0.434938531
F        0.666602702   0.666601597   0.700071968


     NEW-OLD atomic charge density approx. for the potential

     Check: negative core charge=   -0.000028

     negative rho (up, down):  4.527E-03 0.000E+00
     extrapolated charge   29.76997, renormalised to   30.00000

     total cpu time spent up to now is      165.1 secs

     Self-consistent Calculation

     iteration #  1     ecut=    45.00 Ry     beta= 0.40
     CG style diagonalization
     c_bands:  3 eigenvalues not converged
     c_bands:  4 eigenvalues not converged
     c_bands:  4 eigenvalues not converged
     c_bands:  2 eigenvalues not converged
     c_bands:  3 eigenvalues not converged
     c_bands:  3 eigenvalues not converged
     c_bands:  3 eigenvalues not converged
     c_bands:  4 eigenvalues not converged
     c_bands:  3 eigenvalues not converged
     c_bands:  4 eigenvalues not converged
     c_bands:  4 eigenvalues not converged
     c_bands:  4 eigenvalues not converged
     c_bands:  5 eigenvalues not converged
     c_bands:  4 eigenvalues not converged
     c_bands:  4 eigenvalues not converged
     c_bands:  5 eigenvalues not converged
     c_bands:  3 eigenvalues not converged
     c_bands:  4 eigenvalues not converged
     c_bands:  4 eigenvalues not converged
     c_bands:  2 eigenvalues not converged
     c_bands:  5 eigenvalues not converged
     c_bands:  2 eigenvalues not converged
     c_bands:  1 eigenvalues not converged
     c_bands:  2 eigenvalues not converged
     c_bands:  4 eigenvalues not converged
     c_bands:  2 eigenvalues not converged
     c_bands:  1 eigenvalues not converged
     c_bands:  4 eigenvalues not converged
     c_bands:  5 eigenvalues not converged
     c_bands:  2 eigenvalues not converged
     c_bands:  2 eigenvalues not converged
     c_bands:  2 eigenvalues not converged
     c_bands:  2 eigenvalues not converged
     c_bands:  4 eigenvalues not converged
     c_bands:  2 eigenvalues not converged
     c_bands:  4 eigenvalues not converged
     c_bands:  4 eigenvalues not converged
     c_bands:  4 eigenvalues not converged
     c_bands:  2 eigenvalues not converged
     c_bands:  4 eigenvalues not converged
     c_bands:  2 eigenvalues not converged
     c_bands:  2 eigenvalues not converged
     c_bands:  2 eigenvalues not converged
     c_bands:  2 eigenvalues not converged
     c_bands:  2 eigenvalues not converged
     c_bands:  4 eigenvalues not converged
     c_bands:  1 eigenvalues not converged
     c_bands:  4 eigenvalues not converged
     c_bands:  4 eigenvalues not converged
     c_bands:  2 eigenvalues not converged
     c_bands:  5 eigenvalues not converged
     c_bands:  2 eigenvalues not converged
     c_bands:  2 eigenvalues not converged
     c_bands:  2 eigenvalues not converged
     c_bands:  2 eigenvalues not converged
     c_bands:  5 eigenvalues not converged
     c_bands:  1 eigenvalues not converged
     c_bands:  5 eigenvalues not converged
     c_bands:  2 eigenvalues not converged
     c_bands:  2 eigenvalues not converged
     c_bands:  2 eigenvalues not converged
     c_bands:  5 eigenvalues not converged
     c_bands:  3 eigenvalues not converged
     ethr =  1.00E-06,  avg # of iterations = 15.0

     negative rho (up, down):  4.790E-03 0.000E+00

     total cpu time spent up to now is      222.0 secs

     total energy              =    -189.89135615 Ry
     Harris-Foulkes estimate   =    -201.39959832 Ry
     estimated scf accuracy    <       0.04758228 Ry

     iteration #  2     ecut=    45.00 Ry     beta= 0.40
     CG style diagonalization
     c_bands:  1 eigenvalues not converged
     c_bands:  1 eigenvalues not converged
     c_bands:  2 eigenvalues not converged
     c_bands:  1 eigenvalues not converged
     c_bands:  1 eigenvalues not converged
     c_bands:  1 eigenvalues not converged
     ethr =  1.59E-04,  avg # of iterations =  5.2

     negative rho (up, down):  4.689E-03 0.000E+00

     total cpu time spent up to now is      241.0 secs

     total energy              =    -189.93626661 Ry
     Harris-Foulkes estimate   =    -189.96058816 Ry
     estimated scf accuracy    <       0.08191310 Ry

     iteration #  3     ecut=    45.00 Ry     beta= 0.40
     CG style diagonalization
     ethr =  1.59E-04,  avg # of iterations =  3.5

     negative rho (up, down):  4.609E-03 0.000E+00

     total cpu time spent up to now is      253.9 secs

     total energy              =    -189.94003953 Ry
     Harris-Foulkes estimate   =    -189.94281206 Ry
     estimated scf accuracy    <       0.01181154 Ry

     iteration #  4     ecut=    45.00 Ry     beta= 0.40
     CG style diagonalization
     c_bands:  1 eigenvalues not converged
     c_bands:  1 eigenvalues not converged
     c_bands:  1 eigenvalues not converged
     c_bands:  1 eigenvalues not converged
     c_bands:  1 eigenvalues not converged
     ethr =  3.94E-05,  avg # of iterations =  3.4

     negative rho (up, down):  4.584E-03 0.000E+00

     total cpu time spent up to now is      266.2 secs

     total energy              =    -189.94004331 Ry
     Harris-Foulkes estimate   =    -189.94083218 Ry
     estimated scf accuracy    <       0.00382511 Ry

     iteration #  5     ecut=    45.00 Ry     beta= 0.40
     CG style diagonalization
     c_bands:  1 eigenvalues not converged
     ethr =  1.28E-05,  avg # of iterations =  3.6

     negative rho (up, down):  4.576E-03 0.000E+00

     total cpu time spent up to now is      279.5 secs

     total energy              =    -189.94023429 Ry
     Harris-Foulkes estimate   =    -189.94034402 Ry
     estimated scf accuracy    <       0.00121047 Ry

     iteration #  6     ecut=    45.00 Ry     beta= 0.40
     CG style diagonalization
     c_bands:  1 eigenvalues not converged
     ethr =  4.03E-06,  avg # of iterations =  3.5

     negative rho (up, down):  4.544E-03 0.000E+00

     total cpu time spent up to now is      292.5 secs

     total energy              =    -189.93994889 Ry
     Harris-Foulkes estimate   =    -189.94031388 Ry
     estimated scf accuracy    <       0.00085432 Ry

     iteration #  7     ecut=    45.00 Ry     beta= 0.40
     CG style diagonalization
     c_bands:  2 eigenvalues not converged
     c_bands:  1 eigenvalues not converged
     c_bands:  1 eigenvalues not converged
     c_bands:  2 eigenvalues not converged
     c_bands:  2 eigenvalues not converged
     c_bands:  2 eigenvalues not converged
     c_bands:  1 eigenvalues not converged
     c_bands:  1 eigenvalues not converged
     c_bands:  1 eigenvalues not converged
     c_bands:  1 eigenvalues not converged
     c_bands:  1 eigenvalues not converged
     ethr =  2.85E-06,  avg # of iterations =  4.1

     negative rho (up, down):  4.537E-03 0.000E+00

     total cpu time spent up to now is      307.3 secs

     total energy              =    -189.94010068 Ry
     Harris-Foulkes estimate   =    -189.94013475 Ry
     estimated scf accuracy    <       0.00013176 Ry

     iteration #  8     ecut=    45.00 Ry     beta= 0.40
     CG style diagonalization
     ethr =  4.39E-07,  avg # of iterations =  3.8

     negative rho (up, down):  4.537E-03 0.000E+00

     total cpu time spent up to now is      320.8 secs

     total energy              =    -189.94014222 Ry
     Harris-Foulkes estimate   =    -189.94014274 Ry
     estimated scf accuracy    <       0.00007002 Ry

     iteration #  9     ecut=    45.00 Ry     beta= 0.40
     CG style diagonalization
     ethr =  2.33E-07,  avg # of iterations =  3.0

     negative rho (up, down):  4.539E-03 0.000E+00

     total cpu time spent up to now is      331.2 secs

     total energy              =    -189.94013936 Ry
     Harris-Foulkes estimate   =    -189.94014419 Ry
     estimated scf accuracy    <       0.00007474 Ry

     iteration # 10     ecut=    45.00 Ry     beta= 0.40
     CG style diagonalization
     ethr =  2.33E-07,  avg # of iterations =  3.0

     negative rho (up, down):  4.562E-03 0.000E+00

     total cpu time spent up to now is      341.6 secs

     total energy              =    -189.94009882 Ry
     Harris-Foulkes estimate   =    -189.94013988 Ry
     estimated scf accuracy    <       0.00006397 Ry

     iteration # 11     ecut=    45.00 Ry     beta= 0.40
     CG style diagonalization
     ethr =  2.13E-07,  avg # of iterations =  3.7

     negative rho (up, down):  4.557E-03 0.000E+00

     total cpu time spent up to now is      354.3 secs

     total energy              =    -189.94011989 Ry
     Harris-Foulkes estimate   =    -189.94012469 Ry
     estimated scf accuracy    <       0.00001999 Ry

     iteration # 12     ecut=    45.00 Ry     beta= 0.40
     CG style diagonalization
     ethr =  6.66E-08,  avg # of iterations =  3.1

     negative rho (up, down):  4.554E-03 0.000E+00

     total cpu time spent up to now is      365.1 secs

     total energy              =    -189.94012031 Ry
     Harris-Foulkes estimate   =    -189.94012117 Ry
     estimated scf accuracy    <       0.00000802 Ry

     iteration # 13     ecut=    45.00 Ry     beta= 0.40
     CG style diagonalization
     ethr =  2.67E-08,  avg # of iterations =  3.0

     negative rho (up, down):  4.551E-03 0.000E+00

     total cpu time spent up to now is      375.5 secs

     total energy              =    -189.94011857 Ry
     Harris-Foulkes estimate   =    -189.94012048 Ry
     estimated scf accuracy    <       0.00000660 Ry

     iteration # 14     ecut=    45.00 Ry     beta= 0.40
     CG style diagonalization
     ethr =  2.20E-08,  avg # of iterations =  3.0

     negative rho (up, down):  4.551E-03 0.000E+00

     total cpu time spent up to now is      385.9 secs

     total energy              =    -189.94011852 Ry
     Harris-Foulkes estimate   =    -189.94011885 Ry
     estimated scf accuracy    <       0.00000226 Ry

     iteration # 15     ecut=    45.00 Ry     beta= 0.40
     CG style diagonalization
     ethr =  7.52E-09,  avg # of iterations =  3.1

     negative rho (up, down):  4.551E-03 0.000E+00

     total cpu time spent up to now is      396.9 secs

     total energy              =    -189.94011862 Ry
     Harris-Foulkes estimate   =    -189.94011863 Ry
     estimated scf accuracy    <       0.00000133 Ry

     iteration # 16     ecut=    45.00 Ry     beta= 0.40
     CG style diagonalization
     ethr =  4.45E-09,  avg # of iterations =  3.0

     negative rho (up, down):  4.551E-03 0.000E+00

     total cpu time spent up to now is      407.8 secs

     total energy              =    -189.94011865 Ry
     Harris-Foulkes estimate   =    -189.94011864 Ry
     estimated scf accuracy    <       0.00000137 Ry

     iteration # 17     ecut=    45.00 Ry     beta= 0.40
     CG style diagonalization
     ethr =  4.45E-09,  avg # of iterations =  3.0

     negative rho (up, down):  4.546E-03 0.000E+00

     total cpu time spent up to now is      418.6 secs

     total energy              =    -189.94011786 Ry
     Harris-Foulkes estimate   =    -189.94011866 Ry
     estimated scf accuracy    <       0.00000140 Ry

     iteration # 18     ecut=    45.00 Ry     beta= 0.40
     CG style diagonalization
     ethr =  4.45E-09,  avg # of iterations =  3.5

     negative rho (up, down):  4.546E-03 0.000E+00

     total cpu time spent up to now is      431.2 secs

     total energy              =    -189.94011805 Ry
     Harris-Foulkes estimate   =    -189.94011815 Ry
     estimated scf accuracy    <       0.00000017 Ry

     iteration # 19     ecut=    45.00 Ry     beta= 0.40
     CG style diagonalization
     ethr =  5.74E-10,  avg # of iterations =  3.6

     negative rho (up, down):  4.546E-03 0.000E+00

     total cpu time spent up to now is      444.1 secs

     total energy              =    -189.94011809 Ry
     Harris-Foulkes estimate   =    -189.94011810 Ry
     estimated scf accuracy    <       0.00000003 Ry

     iteration # 20     ecut=    45.00 Ry     beta= 0.40
     CG style diagonalization
     ethr =  8.74E-11,  avg # of iterations =  3.9

     negative rho (up, down):  4.546E-03 0.000E+00

     total cpu time spent up to now is      458.2 secs

     total energy              =    -189.94011810 Ry
     Harris-Foulkes estimate   =    -189.94011811 Ry
     estimated scf accuracy    <       0.00000001 Ry

     iteration # 21     ecut=    45.00 Ry     beta= 0.40
     CG style diagonalization
     ethr =  3.76E-11,  avg # of iterations =  3.8

     negative rho (up, down):  4.546E-03 0.000E+00

     total cpu time spent up to now is      472.1 secs

     End of self-consistent calculation

          k = 0.0000 0.0000 0.0000 (  3897 PWs)   bands (ev):

   -27.4261 -27.3808 -21.3775 -17.9646 -12.0985  -9.4525  -6.2241  -5.7850
    -5.7849  -5.5548  -5.5548  -3.1137  -3.1137  -1.8202  -1.8202   2.1702
     4.4433   4.7949   4.8211

     occupation numbers 
     1.0000   1.0000   1.0000   1.0000   1.0000   1.0000   1.0000   1.0000
     1.0000   1.0000   1.0000   1.0344   1.0344   0.5303   0.5303   0.0000
     0.0000   0.0000   0.0000

          k = 0.0000 0.0966-0.0000 (  3887 PWs)   bands (ev):

   -27.3632 -27.3206 -21.2304 -17.8399 -12.0058  -9.4273  -6.6170  -6.0756
    -5.9662  -5.7800  -5.6560  -3.5856  -3.3032  -2.3662  -2.0084   2.5194
     4.4290   4.8637   5.1962

     occupation numbers 
     1.0000   1.0000   1.0000   1.0000   1.0000   1.0000   1.0000   1.0000
     1.0000   1.0000   1.0000   1.0038   1.0163   1.0214   0.7364   0.0000
     0.0000   0.0000   0.0000

          k = 0.0000 0.1932-0.0000 (  3883 PWs)   bands (ev):

   -27.1877 -27.1525 -20.7901 -17.4682 -11.7461  -9.3934  -7.7593  -7.1883
    -6.4445  -6.1691  -5.9438  -4.3291  -3.6824  -3.5279  -2.4533   3.0350
     4.2792   5.4595   6.1669

     occupation numbers 
     1.0000   1.0000   1.0000   1.0000   1.0000   1.0000   1.0000   1.0000
     1.0000   1.0000   1.0000   1.0000   1.0021   1.0053   1.0549   0.0000
     0.0000   0.0000   0.0000

          k = 0.0000 0.2898-0.0000 (  3913 PWs)   bands (ev):

   -26.9386 -26.9133 -20.0603 -16.8560 -11.4195  -9.8473  -9.2050  -8.4105
    -7.0522  -6.8087  -6.3430  -4.9773  -4.5594  -4.0323  -2.9272   3.0758
     4.4230   5.9936   7.2905

     occupation numbers 
     1.0000   1.0000   1.0000   1.0000   1.0000   1.0000   1.0000   1.0000
     1.0000   1.0000   1.0000   1.0000   1.0000   1.0002   1.0590   0.0000
     0.0000   0.0000   0.0000

          k = 0.0000 0.3864-0.0000 (  3937 PWs)   bands (ev):

   -26.6776 -26.6619 -19.0530 -16.0202 -12.0921 -10.8355 -10.1664  -8.9099
    -7.6041  -7.4100  -6.7362  -5.9145  -4.9222  -4.2932  -3.2971   2.9099
     4.6266   5.7532   7.4582

     occupation numbers 
     1.0000   1.0000   1.0000   1.0000   1.0000   1.0000   1.0000   1.0000
     1.0000   1.0000   1.0000   1.0000   1.0000   1.0000   1.0167   0.0000
     0.0000   0.0000   0.0000

          k = 0.0000 0.4830-0.0000 (  3939 PWs)   bands (ev):

[...]

   -26.3235 -26.3175 -17.5527 -14.7762 -13.6450 -11.9847 -10.0168  -9.6889
    -9.1370  -8.2855  -7.6490  -6.3726  -5.4562  -4.5840  -4.4228   4.5694
     5.6305   7.1227   7.5040

     occupation numbers 
     1.0000   1.0000   1.0000   1.0000   1.0000   1.0000   1.0000   1.0000
     1.0000   1.0000   1.0000   1.0000   1.0000   1.0000   1.0000   0.0000
     0.0000   0.0000   0.0000

          k = 0.3361-0.2910-0.0000 (  3875 PWs)   bands (ev):

   -26.4637 -26.4527 -18.5101 -15.5275 -13.0322 -11.3459 -10.1899  -9.0159
    -8.3659  -7.6925  -7.1344  -6.2221  -5.1141  -4.4268  -3.7282   3.5217
     4.9101   5.9846   7.7995

     occupation numbers 
     1.0000   1.0000   1.0000   1.0000   1.0000   1.0000   1.0000   1.0000
     1.0000   1.0000   1.0000   1.0000   1.0000   1.0000   1.0018   0.0000
     0.0000   0.0000   0.0000

          k = 0.4201-0.2425-0.0000 (  3862 PWs)   bands (ev):

   -26.3946 -26.3870 -17.9720 -15.1382 -13.9685 -12.0850 -10.0858  -9.0927
    -8.0318  -7.7169  -7.0006  -6.5608  -5.1250  -4.4198  -3.5198   2.8844
     4.4557   5.3385   7.8405

     occupation numbers 
     1.0000   1.0000   1.0000   1.0000   1.0000   1.0000   1.0000   1.0000
     1.0000   1.0000   1.0000   1.0000   1.0000   1.0000   1.0063   0.0000
     0.0000   0.0000   0.0000

          k = 0.4201-0.1455-0.0000 (  3875 PWs)   bands (ev):

   -26.4637 -26.4527 -18.5101 -15.5275 -13.0322 -11.3459 -10.1899  -9.0159
    -8.3659  -7.6925  -7.1344  -6.2221  -5.1141  -4.4268  -3.7282   3.5217
     4.9101   5.9846   7.7984

     occupation numbers 
     1.0000   1.0000   1.0000   1.0000   1.0000   1.0000   1.0000   1.0000
     1.0000   1.0000   1.0000   1.0000   1.0000   1.0000   1.0018   0.0000
     0.0000   0.0000   0.0000

          k = 0.4201-0.0485-0.0000 (  3867 PWs)   bands (ev):

   -26.5047 -26.4915 -18.7869 -15.7452 -12.0322 -10.8853 -10.1014  -9.1714
    -8.8417  -8.2180  -7.0449  -6.0238  -4.9881  -4.4871  -4.2175   4.6045
     5.3666   7.2148   7.5601

     occupation numbers 
     1.0000   1.0000   1.0000   1.0000   1.0000   1.0000   1.0000   1.0000
     1.0000   1.0000   1.0000   1.0000   1.0000   1.0000   1.0000   0.0000
     0.0000   0.0000   0.0000

          k = 0.4201 0.0485-0.0000 (  3867 PWs)   bands (ev):

   -26.5047 -26.4915 -18.7869 -15.7452 -12.0322 -10.8853 -10.1014  -9.1714
    -8.8417  -8.2180  -7.0449  -6.0238  -4.9881  -4.4871  -4.2175   4.6045
     5.3666   7.2147   7.5601

     occupation numbers 
     1.0000   1.0000   1.0000   1.0000   1.0000   1.0000   1.0000   1.0000
     1.0000   1.0000   1.0000   1.0000   1.0000   1.0000   1.0000   0.0000
     0.0000   0.0000   0.0000

          k = 0.4201 0.1455-0.0000 (  3875 PWs)   bands (ev):

   -26.4637 -26.4527 -18.5101 -15.5275 -13.0322 -11.3458 -10.1899  -9.0159
    -8.3659  -7.6925  -7.1344  -6.2222  -5.1141  -4.4268  -3.7283   3.5217
     4.9101   5.9845   7.7994

     occupation numbers 
     1.0000   1.0000   1.0000   1.0000   1.0000   1.0000   1.0000   1.0000
     1.0000   1.0000   1.0000   1.0000   1.0000   1.0000   1.0018   0.0000
     0.0000   0.0000   0.0000

          k = 0.4201 0.2425-0.0000 (  3863 PWs)   bands (ev):

   -26.3946 -26.3870 -17.9720 -15.1382 -13.9685 -12.0850 -10.0858  -9.0927
    -8.0319  -7.7168  -7.0006  -6.5608  -5.1250  -4.4198  -3.5198   2.8844
     4.4557   5.3385   7.8404

     occupation numbers 
     1.0000   1.0000   1.0000   1.0000   1.0000   1.0000   1.0000   1.0000
     1.0000   1.0000   1.0000   1.0000   1.0000   1.0000   1.0063   0.0000
     0.0000   0.0000   0.0000

          k = 0.4201-0.8246 0.0000 (  3882 PWs)   bands (ev):

   -26.3182 -26.3139 -17.2395 -15.0171 -14.1434 -12.7105  -9.8815  -9.2446
    -8.6236  -7.8044  -7.4660  -6.6339  -5.3082  -4.5144  -3.8695   3.6759
     4.4576   5.8371   8.0781

     occupation numbers 
     1.0000   1.0000   1.0000   1.0000   1.0000   1.0000   1.0000   1.0000
     1.0000   1.0000   1.0000   1.0000   1.0000   1.0000   1.0007   0.0000
     0.0000   0.0000   0.0000

          k = 0.4201-0.7276 0.0000 (  3885 PWs)   bands (ev):

   -26.2553 -26.2529 -16.6061 -15.0229 -13.5782 -13.0132 -10.2051  -9.4873
    -9.2842  -8.2910  -7.9150  -6.4922  -5.6267  -4.5703  -4.5383   4.6066
     5.4945   7.2168   7.4960

     occupation numbers 
     1.0000   1.0000   1.0000   1.0000   1.0000   1.0000   1.0000   1.0000
     1.0000   1.0000   1.0000   1.0000   1.0000   1.0000   1.0000   0.0000
     0.0000   0.0000   0.0000

          k = 0.4201-0.6306-0.0000 (  3858 PWs)   bands (ev):

   -26.2209 -26.2184 -16.4665 -14.2721 -13.6286 -12.7376 -10.9497 -10.2761
    -9.1928  -8.5767  -8.1160  -6.2558  -5.7332  -5.2285  -4.5790   4.9521
     6.0205   7.7961   8.7255

     occupation numbers 
     1.0000   1.0000   1.0000   1.0000   1.0000   1.0000   1.0000   1.0000
     1.0000   1.0000   1.0000   1.0000   1.0000   1.0000   1.0000   0.0000
     0.0000   0.0000   0.0000

          k = 0.4201-0.5336-0.0000 (  3858 PWs)   bands (ev):

   -26.2209 -26.2184 -16.4665 -14.2721 -13.6287 -12.7376 -10.9497 -10.2761
    -9.1928  -8.5767  -8.1160  -6.2558  -5.7332  -5.2285  -4.5790   4.9521
     6.0205   7.7961   8.7254

     occupation numbers 
     1.0000   1.0000   1.0000   1.0000   1.0000   1.0000   1.0000   1.0000
     1.0000   1.0000   1.0000   1.0000   1.0000   1.0000   1.0000   0.0000
     0.0000   0.0000   0.0000

          k = 0.4201-0.4366-0.0000 (  3885 PWs)   bands (ev):

   -26.2553 -26.2529 -16.6060 -15.0229 -13.5781 -13.0132 -10.2051  -9.4873
    -9.2842  -8.2910  -7.9150  -6.4922  -5.6267  -4.5703  -4.5383   4.6065
     5.4945   7.2169   7.4960

     occupation numbers 
     1.0000   1.0000   1.0000   1.0000   1.0000   1.0000   1.0000   1.0000
     1.0000   1.0000   1.0000   1.0000   1.0000   1.0000   1.0000   0.0000
     0.0000   0.0000   0.0000

          k = 0.4201-0.3396-0.0000 (  3882 PWs)   bands (ev):

   -26.3182 -26.3139 -17.2395 -15.0171 -14.1434 -12.7105  -9.8814  -9.2446
    -8.6236  -7.8044  -7.4660  -6.6339  -5.3082  -4.5144  -3.8695   3.6759
     4.4575   5.8372   8.0778

     occupation numbers 
     1.0000   1.0000   1.0000   1.0000   1.0000   1.0000   1.0000   1.0000
     1.0000   1.0000   1.0000   1.0000   1.0000   1.0000   1.0007   0.0000
     0.0000   0.0000   0.0000

          k =-0.5041 0.2910 0.0000 (  3866 PWs)   bands (ev):

   -26.3153 -26.3123 -17.0005 -15.4242 -13.9644 -13.1755  -9.8416  -9.2728
    -8.1655  -7.7953  -7.1049  -6.7976  -5.2087  -4.4737  -3.5945   2.9550
     4.1648   5.2563   8.2303

     occupation numbers 
     1.0000   1.0000   1.0000   1.0000   1.0000   1.0000   1.0000   1.0000
     1.0000   1.0000   1.0000   1.0000   1.0000   1.0000   1.0041   0.0000
     0.0000   0.0000   0.0000

          k =-0.5041 0.3881 0.0000 (  3882 PWs)   bands (ev):

   -26.3182 -26.3139 -17.2395 -15.0171 -14.1434 -12.7105  -9.8814  -9.2446
    -8.6236  -7.8044  -7.4660  -6.6339  -5.3082  -4.5144  -3.8695   3.6759
     4.4575   5.8371   8.0780

     occupation numbers 
     1.0000   1.0000   1.0000   1.0000   1.0000   1.0000   1.0000   1.0000
     1.0000   1.0000   1.0000   1.0000   1.0000   1.0000   1.0007   0.0000
     0.0000   0.0000   0.0000

          k =-0.5041 0.4851 0.0000 (  3870 PWs)   bands (ev):

   -26.3235 -26.3175 -17.5527 -14.7762 -13.6450 -11.9847 -10.0168  -9.6889
    -9.1370  -8.2855  -7.6490  -6.3726  -5.4562  -4.5840  -4.4228   4.5694
     5.6305   7.1228   7.5040

     occupation numbers 
     1.0000   1.0000   1.0000   1.0000   1.0000   1.0000   1.0000   1.0000
     1.0000   1.0000   1.0000   1.0000   1.0000   1.0000   1.0000   0.0000
     0.0000   0.0000   0.0000

          k =-0.5041 0.5821 0.0000 (  3885 PWs)   bands (ev):

   -26.3262 -26.3194 -17.6714 -14.8275 -12.9032 -11.8891 -10.0320  -9.9596
    -9.5916  -8.4978  -7.6119  -6.2927  -5.2871  -5.0077  -4.4975   4.8769
     6.2197   6.9777   9.1282

     occupation numbers 
     1.0000   1.0000   1.0000   1.0000   1.0000   1.0000   1.0000   1.0000
     1.0000   1.0000   1.0000   1.0000   1.0000   1.0000   1.0000   0.0000
     0.0000   0.0000   0.0000

          k =-0.5041 0.6791 0.0000 (  3870 PWs)   bands (ev):

   -26.3235 -26.3175 -17.5527 -14.7762 -13.6449 -11.9847 -10.0168  -9.6889
    -9.1370  -8.2855  -7.6490  -6.3726  -5.4562  -4.5840  -4.4228   4.5695
     5.6305   7.1227   7.5040

     occupation numbers 
     1.0000   1.0000   1.0000   1.0000   1.0000   1.0000   1.0000   1.0000
     1.0000   1.0000   1.0000   1.0000   1.0000   1.0000   1.0000   0.0000
     0.0000   0.0000   0.0000

          k =-0.5041 0.7761 0.0000 (  3882 PWs)   bands (ev):

   -26.3182 -26.3139 -17.2395 -15.0171 -14.1434 -12.7105  -9.8815  -9.2446
    -8.6236  -7.8044  -7.4660  -6.6339  -5.3082  -4.5144  -3.8695   3.6759
     4.4576   5.8371   8.0785

     occupation numbers 
     1.0000   1.0000   1.0000   1.0000   1.0000   1.0000   1.0000   1.0000
     1.0000   1.0000   1.0000   1.0000   1.0000   1.0000   1.0007   0.0000
     0.0000   0.0000   0.0000

          k =-0.5041-0.2910 0.0001 (  3866 PWs)   bands (ev):

   -26.3153 -26.3123 -17.0005 -15.4241 -13.9644 -13.1754  -9.8416  -9.2728
    -8.1655  -7.7953  -7.1049  -6.7976  -5.2087  -4.4737  -3.5945   2.9550
     4.1648   5.2562   8.2303

     occupation numbers 
     1.0000   1.0000   1.0000   1.0000   1.0000   1.0000   1.0000   1.0000
     1.0000   1.0000   1.0000   1.0000   1.0000   1.0000   1.0041   0.0000
     0.0000   0.0000   0.0000

     the Fermi energy is    -1.7206 ev

!    total energy              =    -189.94057079 Ry
     Harris-Foulkes estimate   =    -189.94057079 Ry
     estimated scf accuracy    <          9.2E-11 Ry

     total all-electron energy =      -701.912685 Ry

     The total energy is the sum of the following terms:

     one-electron contribution =   -1539.93773003 Ry
     hartree contribution      =     779.69697690 Ry
     xc contribution           =     -37.25992168 Ry
     ewald contribution        =     652.55432433 Ry
     one-center paw contrib.   =     -44.99820498 Ry
      -> PAW hartree energy AE =     118.68114676 Ry
      -> PAW hartree energy PS =    -118.60089547 Ry
      -> PAW xc energy AE      =     -80.70203019 Ry
      -> PAW xc energy PS      =      35.62357393 Ry
      -> total E_H with PAW    =     779.77722818 Ry
      -> total E_XC with PAW   =     -82.33837795 Ry
     smearing contrib. (-TS)   =       0.00398467 Ry

     convergence has been achieved in  13 iterations

     negative rho (up, down):  4.502E-03 0.000E+00

     Forces acting on atoms (cartesian axes, Ry/au):

     atom    1 type  1   force =    -0.00000029   -0.00000036    0.00001197
     atom    2 type  1   force =    -0.00000021   -0.00000034    0.00004675
     atom    3 type  1   force =     0.00000504    0.00000293   -0.00017190
     atom    4 type  1   force =     0.00000044    0.00000014   -0.00000073
     atom    5 type  2   force =     0.00000245    0.00000182   -0.00000770
     atom    6 type  2   force =    -0.00000743   -0.00000419    0.00012161
     The non-local contrib.  to forces
     atom    1 type  1   force =     0.00000862    0.00000444   -0.40626863
     atom    2 type  1   force =     0.00000248    0.00000095    0.08585872
     atom    3 type  1   force =    -0.00000245   -0.00000141    0.40614864
     atom    4 type  1   force =     0.00000030   -0.00000001   -0.08605902
     atom    5 type  2   force =    -0.00003910   -0.00001702    3.21307242
     atom    6 type  2   force =    -0.00000740   -0.00000281   -3.21323514
     The ionic contribution  to forces
     atom    1 type  1   force =    -0.00005245   -0.00002239  -13.66719771
     atom    2 type  1   force =    -0.00001210   -0.00000796   -9.55515534
     atom    3 type  1   force =    -0.00000261    0.00000121   13.66741418
     atom    4 type  1   force =     0.00001629    0.00000804    9.55554756
     atom    5 type  2   force =     0.00005732    0.00002648  -68.18753238
     atom    6 type  2   force =    -0.00000646   -0.00000538   68.18692369
     The local contribution  to forces
     atom    1 type  1   force =     0.00004847    0.00002045   14.06402111
     atom    2 type  1   force =     0.00000875    0.00000628    9.46954069
     atom    3 type  1   force =     0.00000348   -0.00000066  -14.06396825
     atom    4 type  1   force =    -0.00001636   -0.00000803   -9.46979350
     atom    5 type  2   force =    -0.00001638   -0.00000794   64.98453188
     atom    6 type  2   force =     0.00000503    0.00000323  -64.98408878
     The core correction contribution to forces
     atom    1 type  1   force =    -0.00000550   -0.00000318    0.00925076
     atom    2 type  1   force =     0.00000011    0.00000006   -0.00040772
     atom    3 type  1   force =     0.00000603    0.00000348   -0.00998467
     atom    4 type  1   force =    -0.00000035   -0.00000018    0.00009029
     atom    5 type  2   force =     0.00000001   -0.00000002   -0.01027337
     atom    6 type  2   force =     0.00000083    0.00000047    0.01029093
     The Hubbard contrib.    to forces
     atom    1 type  1   force =     0.00000000    0.00000000    0.00000000
     atom    2 type  1   force =     0.00000000    0.00000000    0.00000000
     atom    3 type  1   force =     0.00000000    0.00000000    0.00000000
     atom    4 type  1   force =     0.00000000    0.00000000    0.00000000
     atom    5 type  2   force =     0.00000000    0.00000000    0.00000000
     atom    6 type  2   force =     0.00000000    0.00000000    0.00000000
     The SCF correction term to forces
     atom    1 type  1   force =    -0.00000000    0.00000001   -0.00000674
     atom    2 type  1   force =     0.00000000    0.00000001   -0.00000278
     atom    3 type  1   force =     0.00000001   -0.00000000    0.00000503
     atom    4 type  1   force =    -0.00000000    0.00000000    0.00000076
     atom    5 type  2   force =     0.00000004   -0.00000001   -0.00001943
     atom    6 type  2   force =     0.00000001   -0.00000002    0.00001774

     Total force =     0.000216     Total SCF correction =     0.000028
     SCF correction compared to forces is large: reduce conv_thr to get better values


     Computing stress (Cartesian axis) and pressure


     negative rho (up, down):  4.502E-03 0.000E+00
          total   stress  (Ry/bohr**3)                   (kbar)     P=    0.08
  -0.00000100   0.00000000  -0.00000000         -0.15      0.00     -0.00
   0.00000000  -0.00000100  -0.00000000          0.00     -0.15     -0.00
  -0.00000000  -0.00000000   0.00000363         -0.00     -0.00      0.53

     kinetic stress (kbar)   9355.13      0.00      0.01
                                0.00   9355.13      0.00
                                0.01      0.00   8495.99

     local   stress (kbar)-298136.86      0.01      0.03
                                0.01-298136.87      0.01
                                0.03      0.01 287660.92

     nonloc. stress (kbar)   3196.19     -0.00      0.00
                               -0.00   3196.19      0.00
                                0.00      0.00   2927.85

     hartree stress (kbar) 146989.52      0.00     -0.01
                                0.00 146989.52     -0.00
                               -0.01     -0.00-142418.41

     exc-cor stress (kbar)  -1154.07     -0.00     -0.00
                               -0.00  -1154.07     -0.00
                               -0.00     -0.00  -1150.55

     corecor stress (kbar)   -956.34      0.00     -0.00
                                0.00   -956.34     -0.00
                               -0.00     -0.00   -948.81

     ewald   stress (kbar) 140706.29     -0.01     -0.03
                               -0.01 140706.29     -0.02
                               -0.03     -0.02-154566.46

     hubbard stress (kbar)      0.00      0.00      0.00
                                0.00      0.00      0.00
                                0.00      0.00      0.00

     london  stress (kbar)      0.00      0.00      0.00
                                0.00      0.00      0.00
                                0.00      0.00      0.00

     DFT-D3  stress (kbar)      0.00      0.00      0.00
                                0.00      0.00      0.00
                                0.00      0.00      0.00

     XDM     stress (kbar)      0.00      0.00      0.00
                                0.00      0.00      0.00
                                0.00      0.00      0.00

     dft-nl  stress (kbar)      0.00      0.00      0.00
                                0.00      0.00      0.00
                                0.00      0.00      0.00

     TS-vdW  stress (kbar)      0.00      0.00      0.00
                                0.00      0.00      0.00
                                0.00      0.00      0.00

     3D-RISM stress (kbar)      0.00      0.00      0.00
                                0.00      0.00      0.00
                                0.00      0.00      0.00



     init_run     :     21.25s CPU     12.92s WALL (       2 calls)
     electrons    :   2763.44s CPU   1896.13s WALL (       9 calls)
     update_pot   :     68.77s CPU     22.32s WALL (       7 calls)
     forces       :     48.38s CPU      9.53s WALL (       9 calls)
     stress       :    140.39s CPU     34.70s WALL (       9 calls)

     Called by init_run:
     wfcinit      :      8.55s CPU      6.37s WALL (       2 calls)
     wfcinit:atom :      0.27s CPU      0.24s WALL (     148 calls)
     wfcinit:wfcr :      6.98s CPU      4.90s WALL (     148 calls)
     potinit      :      4.95s CPU      0.81s WALL (       2 calls)
     hinit0       :      7.64s CPU      5.57s WALL (       2 calls)

     Called by electrons:
     c_bands      :   2448.81s CPU   1728.05s WALL (     127 calls)
     sum_band     :    260.91s CPU    143.26s WALL (     127 calls)
     v_of_rho     :      7.73s CPU      3.48s WALL (     136 calls)
     v_h          :      0.45s CPU      0.37s WALL (     136 calls)
     v_xc         :      8.69s CPU      3.52s WALL (     154 calls)
     newd         :      5.58s CPU      3.89s WALL (     136 calls)
     PAW_pot      :     44.86s CPU     19.17s WALL (     143 calls)
     mix_rho      :      0.53s CPU      0.81s WALL (     127 calls)

     Called by c_bands:
     init_us_2    :     28.75s CPU     12.41s WALL (   20794 calls)
     ccgdiagg     :   2122.41s CPU   1511.52s WALL (    9423 calls)
     wfcrot       :    320.97s CPU    212.22s WALL (    8905 calls)

     Called by sum_band:
     sum_band:bec :      2.11s CPU      3.33s WALL (    9916 calls)
     addusdens    :      7.44s CPU      5.87s WALL (     127 calls)

     Called by *cgdiagg:
     h_psi        :   1692.33s CPU   1161.81s WALL (  586065 calls)
     s_psi        :    408.11s CPU    280.97s WALL ( 1163225 calls)
     cdiaghg      :      0.34s CPU      0.73s WALL (    8905 calls)

     Called by h_psi:
     h_psi:pot    :   1650.94s CPU   1099.88s WALL (  586065 calls)
     h_psi:calbec :    535.05s CPU    315.29s WALL (  586065 calls)
     vloc_psi     :    998.30s CPU    715.29s WALL (  586065 calls)
     add_vuspsi   :    114.39s CPU     67.44s WALL (  586065 calls)
     hs_1psi      :   1768.41s CPU   1192.50s WALL (  577160 calls)
     s_1psi       :    221.84s CPU    208.36s WALL (  577160 calls)

     General routines
     calbec       :    643.45s CPU    376.16s WALL ( 1176471 calls)
     fft          :      1.28s CPU      0.57s WALL (    1728 calls)
     ffts         :      0.09s CPU      0.05s WALL (     127 calls)
     fftw         :    673.05s CPU    431.61s WALL ( 1672752 calls)

     Parallel routines

     PAW routines
     PAW_pot      :     44.86s CPU     19.17s WALL (     143 calls)

     PWSCF        :  50m48.17s CPU  33m 0.13s WALL


   This run was terminated on:  15:41:14  21Nov2024            

=------------------------------------------------------------------------------=
   JOB DONE.
=------------------------------------------------------------------------------=
