
     Program PWSCF v.6.4.1 starts on 19Nov2024 at 15:40:40 

     This program is part of the open-source Quantum ESPRESSO suite
     for quantum simulation of materials; please cite
         "P. Giannozzi et al., J. Phys.:Condens. Matter 21 395502 (2009);
         "P. Giannozzi et al., J. Phys.:Condens. Matter 29 465901 (2017);
          URL http://www.quantum-espresso.org", 
     in publications or presentations arising from this work. More details at
     http://www.quantum-espresso.org/quote

     Parallel version (MPI & OpenMP), running on      12 processor cores
     Number of MPI processes:                 1
     Threads/MPI process:                    12

     MPI processes distributed on     1 nodes
     Waiting for input...
     Reading input from standard input

     Current dimensions of program PWSCF are:
     Max number of different atomic species (ntypx) = 10
     Max number of k-points (npk) =  40000
     Max angular momentum in pseudopotentials (lmaxx) =  3
               file C.pbesol-n-kjpaw_psl.1.0.0.UPF: wavefunction(s)  2S 2P renormalized
               file F.pbesol-n-kjpaw_psl.1.0.0.UPF: wavefunction(s)  2S 2P renormalized

     Subspace diagonalization in iterative solution of the eigenvalue problem:
     a serial algorithm will be used


     G-vector sticks info
     --------------------
     sticks:   dense  smooth     PW     G-vecs:    dense   smooth      PW
     Sum         583     223     85                88889    21401    4549



     bravais-lattice index     =            0
     lattice parameter (alat)  =       4.8507  a.u.
     unit-cell volume          =     769.2439 (a.u.)^3
     number of atoms/cell      =            6
     number of atomic types    =            2
     number of electrons       =        30.00
     number of Kohn-Sham states=           19
     kinetic-energy cutoff     =      35.0000  Ry
     charge density cutoff     =     360.0000  Ry
     convergence threshold     =      1.2E-09
     mixing beta               =       0.4000
     number of iterations used =            8  plain     mixing
     Exchange-correlation      = SLA PW PSX PSC ( 1  4 10  8 0 0)

     celldm(1)=   4.850737  celldm(2)=   0.000000  celldm(3)=   0.000000
     celldm(4)=   0.000000  celldm(5)=   0.000000  celldm(6)=   0.000000

     crystal axes: (cart. coord. in units of alat)
               a(1) = (   1.000000   0.000000   0.000000 )  
               a(2) = (   0.500000   0.866025   0.000000 )  
               a(3) = (   0.000640   0.000376   7.782340 )  

     reciprocal axes: (cart. coord. in units 2 pi/alat)
               b(1) = (  1.000000 -0.577350 -0.000054 )  
               b(2) = (  0.000000  1.154701 -0.000056 )  
               b(3) = (  0.000000  0.000000  0.128496 )  


     PseudoPot. # 1 for C  read from file:
     .\C.pbesol-n-kjpaw_psl.1.0.0.UPF
     MD5 check sum: f9b2fe17d1f478429498b05d17159f9e
     Pseudo is Projector augmented-wave + core cor, Zval =  4.0
     Generated using "atomic" code by A. Dal Corso v.6.3
     Shape of augmentation charge: PSQ
     Using radial grid of 1073 points,  4 beta functions with: 
                l(1) =   0
                l(2) =   0
                l(3) =   1
                l(4) =   1
     Q(r) pseudized with 0 coefficients 


     PseudoPot. # 2 for F  read from file:
     .\F.pbesol-n-kjpaw_psl.1.0.0.UPF
     MD5 check sum: d939582bcd23f1ece12cfc4fab8d9d36
     Pseudo is Projector augmented-wave + core cor, Zval =  7.0
     Generated using "atomic" code by A. Dal Corso v.6.3
     Shape of augmentation charge: PSQ
     Using radial grid of 1105 points,  4 beta functions with: 
                l(1) =   0
                l(2) =   0
                l(3) =   1
                l(4) =   1
     Q(r) pseudized with 0 coefficients 


     atomic species   valence    mass     pseudopotential
        C              4.00    12.01070     C ( 1.00)
        F              7.00    18.99840     F ( 1.00)

     No symmetry found


                                    s                        frac. trans.

      isym =  1     identity                                     

 cryst.   s( 1) = (     1          0          0      )
                  (     0          1          0      )
                  (     0          0          1      )

 cart.    s( 1) = (  1.0000000  0.0000000  0.0000000 )
                  (  0.0000000  1.0000000  0.0000000 )
                  (  0.0000000  0.0000000  1.0000000 )


   Cartesian axes

     site n.     atom                  positions (alat units)
         1           C   tau(   1) = (   0.0003519   0.0002070   3.9178512  )
         2           C   tau(   2) = (   0.5003526   0.2888824   4.1138039  )
         3           C   tau(   3) = (   1.0003491   0.5775541   4.9151223  )
         4           C   tau(   4) = (   0.5003488   0.2888789   4.7191654  )
         5           F   tau(   5) = (   0.0003452   0.0002019   3.3809522  )
         6           F   tau(   6) = (   1.0003518   0.5775569   5.4520245  )

   Crystallographic axes

     site n.     atom                  positions (cryst. coord.)
         1           C   tau(   1) = (  0.0000192  0.0000206  0.5034284  )
         2           C   tau(   2) = (  0.3333424  0.3333434  0.5286075  )
         3           C   tau(   3) = (  0.6666304  0.6666281  0.6315738  )
         4           C   tau(   4) = (  0.3333076  0.3333056  0.6063941  )
         5           F   tau(   5) = (  0.0000446  0.0000447  0.4344390  )
         6           F   tau(   6) = (  0.6666024  0.6666014  0.7005636  )

     number of k points=    20  Marzari-Vanderbilt smearing, width (Ry)=  0.0200
                       cart. coord. in units 2pi/alat
        k(    1) = (   0.0000000   0.0000000   0.0000000), wk =   0.0555556
        k(    2) = (   0.0000000   0.1924501  -0.0000093), wk =   0.1111111
        k(    3) = (   0.0000000   0.3849002  -0.0000186), wk =   0.1111111
        k(    4) = (   0.0000000  -0.5773503   0.0000279), wk =   0.0555556
        k(    5) = (   0.1666667  -0.0962251  -0.0000091), wk =   0.1111111
        k(    6) = (   0.1666667   0.0962250  -0.0000184), wk =   0.1111111
        k(    7) = (   0.1666667   0.2886751  -0.0000277), wk =   0.1111111
        k(    8) = (   0.1666667  -0.6735754   0.0000188), wk =   0.1111111
        k(    9) = (   0.1666667  -0.4811253   0.0000095), wk =   0.1111111
        k(   10) = (   0.1666667  -0.2886752   0.0000002), wk =   0.1111111
        k(   11) = (   0.3333333  -0.1924501  -0.0000181), wk =   0.1111111
        k(   12) = (   0.3333333  -0.0000000  -0.0000274), wk =   0.1111111
        k(   13) = (   0.3333333   0.1924501  -0.0000367), wk =   0.1111111
        k(   14) = (   0.3333333  -0.7698005   0.0000097), wk =   0.1111111
        k(   15) = (   0.3333333  -0.5773504   0.0000004), wk =   0.1111111
        k(   16) = (   0.3333333  -0.3849003  -0.0000088), wk =   0.1111111
        k(   17) = (  -0.5000000   0.2886752   0.0000272), wk =   0.0555556
        k(   18) = (  -0.5000000   0.4811253   0.0000179), wk =   0.1111111
        k(   19) = (  -0.5000000   0.6735754   0.0000086), wk =   0.1111111
        k(   20) = (  -0.5000000  -0.2886751   0.0000551), wk =   0.0555556

                       cryst. coord.
        k(    1) = (   0.0000000   0.0000000   0.0000000), wk =   0.0555556
        k(    2) = (   0.0000000   0.1666667   0.0000000), wk =   0.1111111
        k(    3) = (   0.0000000   0.3333333   0.0000000), wk =   0.1111111
        k(    4) = (   0.0000000  -0.5000000  -0.0000000), wk =   0.0555556
        k(    5) = (   0.1666667   0.0000000   0.0000000), wk =   0.1111111
        k(    6) = (   0.1666667   0.1666667   0.0000000), wk =   0.1111111
        k(    7) = (   0.1666667   0.3333333   0.0000000), wk =   0.1111111
        k(    8) = (   0.1666667  -0.5000000   0.0000000), wk =   0.1111111
        k(    9) = (   0.1666667  -0.3333333   0.0000000), wk =   0.1111111
        k(   10) = (   0.1666667  -0.1666667   0.0000000), wk =   0.1111111
        k(   11) = (   0.3333333   0.0000000   0.0000000), wk =   0.1111111
        k(   12) = (   0.3333333   0.1666667   0.0000000), wk =   0.1111111
        k(   13) = (   0.3333333   0.3333333   0.0000000), wk =   0.1111111
        k(   14) = (   0.3333333  -0.5000000   0.0000000), wk =   0.1111111
        k(   15) = (   0.3333333  -0.3333333   0.0000000), wk =   0.1111111
        k(   16) = (   0.3333333  -0.1666667   0.0000000), wk =   0.1111111
        k(   17) = (  -0.5000000   0.0000000  -0.0000000), wk =   0.0555556
        k(   18) = (  -0.5000000   0.1666667  -0.0000000), wk =   0.1111111
        k(   19) = (  -0.5000000   0.3333333  -0.0000000), wk =   0.1111111
        k(   20) = (  -0.5000000  -0.5000000  -0.0000000), wk =   0.0555556

     Dense  grid:    88889 G-vectors     FFT dimensions: (  30,  30, 240)

     Smooth grid:    21401 G-vectors     FFT dimensions: (  20,  20, 144)

     Dynamical RAM for                 wfc:       0.78 MB

     Dynamical RAM for     wfc (w. buffer):      16.38 MB

     Dynamical RAM for           str. fact:       2.71 MB

     Dynamical RAM for           local pot:       0.00 MB

     Dynamical RAM for          nlocal pot:       1.97 MB

     Dynamical RAM for                qrad:       0.67 MB

     Dynamical RAM for          rho,v,vnew:       9.01 MB

     Dynamical RAM for               rhoin:       3.00 MB

     Dynamical RAM for            rho*nmix:      21.70 MB

     Dynamical RAM for           G-vectors:       5.25 MB

     Dynamical RAM for          h,s,v(r/c):       0.02 MB

     Dynamical RAM for          <psi|beta>:       0.01 MB

     Dynamical RAM for      wfcinit/wfcrot:       1.98 MB

     Dynamical RAM for           addusdens:      63.75 MB

     Dynamical RAM for          addusforce:      80.71 MB

     Dynamical RAM for         addusstress:      67.82 MB

     Estimated static dynamical RAM per process >      73.01 MB

     Estimated max dynamical RAM per process >     153.72 MB

     Check: negative core charge=   -0.000005

     Initial potential from superposition of free atoms

     starting charge   29.99983, renormalised to   30.00000

     negative rho (up, down):  5.058E-04 0.000E+00
     Starting wfcs are   24 randomized atomic wfcs
     Checking if some PAW data can be deallocated... 

     total cpu time spent up to now is        7.7 secs

     Self-consistent Calculation

     iteration #  1     ecut=    35.00 Ry     beta= 0.40
     CG style diagonalization
     ethr =  1.00E-02,  avg # of iterations =  3.1

     negative rho (up, down):  4.467E-04 0.000E+00

     total cpu time spent up to now is       11.2 secs

     total energy              =    -189.89527675 Ry
     Harris-Foulkes estimate   =    -190.02049245 Ry
     estimated scf accuracy    <       0.32343611 Ry

     iteration #  2     ecut=    35.00 Ry     beta= 0.40
     CG style diagonalization
     ethr =  1.08E-03,  avg # of iterations =  3.1

     negative rho (up, down):  7.707E-04 0.000E+00

     total cpu time spent up to now is       14.3 secs

     total energy              =    -189.90713644 Ry
     Harris-Foulkes estimate   =    -189.93112077 Ry
     estimated scf accuracy    <       0.06523239 Ry

     iteration #  3     ecut=    35.00 Ry     beta= 0.40
     CG style diagonalization
     ethr =  2.17E-04,  avg # of iterations =  3.7

     negative rho (up, down):  8.817E-04 0.000E+00

     total cpu time spent up to now is       18.0 secs

     total energy              =    -189.91081020 Ry
     Harris-Foulkes estimate   =    -189.91534636 Ry
     estimated scf accuracy    <       0.01233482 Ry

     iteration #  4     ecut=    35.00 Ry     beta= 0.40
     CG style diagonalization
     ethr =  4.11E-05,  avg # of iterations =  3.6

     negative rho (up, down):  9.308E-04 0.000E+00

     total cpu time spent up to now is       21.5 secs

     total energy              =    -189.91217681 Ry
     Harris-Foulkes estimate   =    -189.91260995 Ry
     estimated scf accuracy    <       0.00161107 Ry

     iteration #  5     ecut=    35.00 Ry     beta= 0.40
     CG style diagonalization
     c_bands:  1 eigenvalues not converged
     c_bands:  1 eigenvalues not converged
     c_bands:  1 eigenvalues not converged
     ethr =  5.37E-06,  avg # of iterations =  4.0

     negative rho (up, down):  7.370E-04 0.000E+00

     total cpu time spent up to now is       25.5 secs

     total energy              =    -189.91242606 Ry
     Harris-Foulkes estimate   =    -189.91248905 Ry
     estimated scf accuracy    <       0.00017287 Ry

     iteration #  6     ecut=    35.00 Ry     beta= 0.40
     CG style diagonalization
     c_bands:  1 eigenvalues not converged
     c_bands:  1 eigenvalues not converged
     c_bands:  1 eigenvalues not converged
     ethr =  5.76E-07,  avg # of iterations =  3.7

     negative rho (up, down):  7.016E-04 0.000E+00

     total cpu time spent up to now is       29.2 secs

     total energy              =    -189.91245490 Ry
     Harris-Foulkes estimate   =    -189.91246052 Ry
     estimated scf accuracy    <       0.00003123 Ry

     iteration #  7     ecut=    35.00 Ry     beta= 0.40
     CG style diagonalization
     c_bands:  1 eigenvalues not converged
     ethr =  1.04E-07,  avg # of iterations =  3.3

     negative rho (up, down):  6.459E-04 0.000E+00

     total cpu time spent up to now is       32.6 secs

     total energy              =    -189.91245845 Ry
     Harris-Foulkes estimate   =    -189.91245900 Ry
     estimated scf accuracy    <       0.00000174 Ry

     iteration #  8     ecut=    35.00 Ry     beta= 0.40
     CG style diagonalization
     ethr =  5.79E-09,  avg # of iterations =  3.8

     negative rho (up, down):  6.274E-04 0.000E+00

     total cpu time spent up to now is       36.5 secs

     total energy              =    -189.91245915 Ry
     Harris-Foulkes estimate   =    -189.91245920 Ry
     estimated scf accuracy    <       0.00000025 Ry

     iteration #  9     ecut=    35.00 Ry     beta= 0.40
     CG style diagonalization
     ethr =  8.46E-10,  avg # of iterations =  3.6

     negative rho (up, down):  6.201E-04 0.000E+00

     total cpu time spent up to now is       40.0 secs

     total energy              =    -189.91245922 Ry
     Harris-Foulkes estimate   =    -189.91245922 Ry
     estimated scf accuracy    <       0.00000003 Ry

     iteration # 10     ecut=    35.00 Ry     beta= 0.40
     CG style diagonalization
     ethr =  1.13E-10,  avg # of iterations =  3.2

     negative rho (up, down):  6.174E-04 0.000E+00

     total cpu time spent up to now is       43.4 secs

     total energy              =    -189.91245923 Ry
     Harris-Foulkes estimate   =    -189.91245922 Ry
     estimated scf accuracy    <          8.3E-09 Ry

     iteration # 11     ecut=    35.00 Ry     beta= 0.40
     CG style diagonalization
     ethr =  2.76E-11,  avg # of iterations =  3.7

     negative rho (up, down):  6.163E-04 0.000E+00

     total cpu time spent up to now is       47.0 secs

     total energy              =    -189.91245924 Ry
     Harris-Foulkes estimate   =    -189.91245924 Ry
     estimated scf accuracy    <          1.3E-09 Ry

     iteration # 12     ecut=    35.00 Ry     beta= 0.40
     CG style diagonalization
     ethr =  4.24E-12,  avg # of iterations =  3.2

     negative rho (up, down):  6.156E-04 0.000E+00

     total cpu time spent up to now is       50.1 secs

     End of self-consistent calculation

          k = 0.0000 0.0000 0.0000 (  2705 PWs)   bands (ev):

   -27.3226 -27.2750 -21.4846 -18.0602 -12.1399  -9.4201  -6.2356  -5.8213
    -5.8213  -5.5567  -5.5567  -3.2813  -3.2813  -2.0197  -2.0197   1.9524
     4.3104   4.6265   4.6266

     occupation numbers 
     1.0000   1.0000   1.0000   1.0000   1.0000   1.0000   1.0000   1.0000
     1.0000   1.0000   1.0000   1.0000   1.0000   1.0000   1.0000   0.0000
     0.0000   0.0000   0.0000

          k = 0.0000 0.1925-0.0000 (  2732 PWs)   bands (ev):

   -27.0885 -27.0521 -20.9017 -17.5654 -11.7890  -9.3603  -7.8237  -7.2173
    -6.5132  -6.2268  -5.9595  -4.4141  -3.8117  -3.6784  -2.6308   2.7999
     4.0393   5.7238   5.9722

     occupation numbers 
     1.0000   1.0000   1.0000   1.0000   1.0000   1.0000   1.0000   1.0000
     1.0000   1.0000   1.0000   1.0000   1.0000   1.0000   1.0000   0.0000
     0.0000   0.0000   0.0000

          k = 0.0000 0.3849-0.0000 (  2712 PWs)   bands (ev):

   -26.5885 -26.5732 -19.1761 -16.1199 -12.2141 -10.8747 -10.1966  -8.8977
    -7.6996  -7.4252  -6.7659  -5.9651  -4.9829  -4.3812  -3.4441   2.6666
     4.3695   5.4908   7.1931

     occupation numbers 
     1.0000   1.0000   1.0000   1.0000   1.0000   1.0000   1.0000   1.0000
     1.0000   1.0000   1.0000   1.0000   1.0000   1.0000   1.0000   0.0000
     0.0000   0.0000   0.0000

          k = 0.0000-0.5774 0.0000 (  2648 PWs)   bands (ev):

   -26.3186 -26.3159 -17.0051 -15.4210 -13.9367 -13.2106  -9.8271  -9.3048
    -8.2046  -7.8211  -7.1511  -6.8208  -5.2613  -4.5783  -3.7280   2.7135
     3.9341   4.9622   7.8497

     occupation numbers 
     1.0000   1.0000   1.0000   1.0000   1.0000   1.0000   1.0000   1.0000
     1.0000   1.0000   1.0000   1.0000   1.0000   1.0000   1.0000   0.0000
     0.0000   0.0000   0.0000

          k = 0.1667-0.0962-0.0000 (  2732 PWs)   bands (ev):

   -27.0885 -27.0521 -20.9017 -17.5654 -11.7890  -9.3603  -7.8237  -7.2173
    -6.5132  -6.2268  -5.9596  -4.4140  -3.8117  -3.6784  -2.6308   2.7999
     4.0393   5.7236   5.9719

     occupation numbers 
     1.0000   1.0000   1.0000   1.0000   1.0000   1.0000   1.0000   1.0000
     1.0000   1.0000   1.0000   1.0000   1.0000   1.0000   1.0000   0.0000
     0.0000   0.0000   0.0000

          k = 0.1667 0.0962-0.0000 (  2732 PWs)   bands (ev):

   -27.0885 -27.0521 -20.9017 -17.5654 -11.7890  -9.3603  -7.8237  -7.2173
    -6.5132  -6.2268  -5.9596  -4.4141  -3.8117  -3.6784  -2.6308   2.7999
     4.0392   5.7236   5.9718

     occupation numbers 
     1.0000   1.0000   1.0000   1.0000   1.0000   1.0000   1.0000   1.0000
     1.0000   1.0000   1.0000   1.0000   1.0000   1.0000   1.0000   0.0000
     0.0000   0.0000   0.0000

          k = 0.1667 0.2887-0.0000 (  2713 PWs)   bands (ev):

   -26.7192 -26.6985 -19.7443 -16.5905 -11.3674  -9.8749  -9.7542  -8.5304
    -8.2481  -7.6803  -6.4875  -5.5169  -4.6546  -4.2299  -3.9925   4.2207
     4.4527   6.4206   7.4474

     occupation numbers 
     1.0000   1.0000   1.0000   1.0000   1.0000   1.0000   1.0000   1.0000
     1.0000   1.0000   1.0000   1.0000   1.0000   1.0000   1.0000   0.0000
     0.0000   0.0000   0.0000

          k = 0.1667-0.6736 0.0000 (  2669 PWs)   bands (ev):

   -26.3261 -26.3206 -17.5372 -14.8089 -13.6451 -12.0273 -10.0041  -9.7095
    -9.1507  -8.3115  -7.6754  -6.4140  -5.5125  -4.6754  -4.5251   4.3056
     5.3296   6.8551   7.1738

     occupation numbers 
     1.0000   1.0000   1.0000   1.0000   1.0000   1.0000   1.0000   1.0000
     1.0000   1.0000   1.0000   1.0000   1.0000   1.0000   1.0000   0.0000
     0.0000   0.0000   0.0000

          k = 0.1667-0.4811 0.0000 (  2669 PWs)   bands (ev):

   -26.3261 -26.3206 -17.5372 -14.8089 -13.6451 -12.0273 -10.0041  -9.7095
    -9.1507  -8.3115  -7.6754  -6.4140  -5.5125  -4.6755  -4.5251   4.3056
     5.3296   6.8551   7.1740

     occupation numbers 
     1.0000   1.0000   1.0000   1.0000   1.0000   1.0000   1.0000   1.0000
     1.0000   1.0000   1.0000   1.0000   1.0000   1.0000   1.0000   0.0000
     0.0000   0.0000   0.0000

          k = 0.1667-0.2887 0.0000 (  2713 PWs)   bands (ev):

   -26.7192 -26.6985 -19.7443 -16.5905 -11.3674  -9.8749  -9.7542  -8.5304
    -8.2481  -7.6803  -6.4875  -5.5169  -4.6546  -4.2299  -3.9925   4.2208
     4.4528   6.4206   7.4476

     occupation numbers 
     1.0000   1.0000   1.0000   1.0000   1.0000   1.0000   1.0000   1.0000
     1.0000   1.0000   1.0000   1.0000   1.0000   1.0000   1.0000   0.0000
     0.0000   0.0000   0.0000

          k = 0.3333-0.1925-0.0000 (  2712 PWs)   bands (ev):

   -26.5885 -26.5732 -19.1761 -16.1199 -12.2141 -10.8747 -10.1966  -8.8977
    -7.6996  -7.4252  -6.7659  -5.9651  -4.9829  -4.3812  -3.4441   2.6666
     4.3694   5.4908   7.1930

     occupation numbers 
     1.0000   1.0000   1.0000   1.0000   1.0000   1.0000   1.0000   1.0000
     1.0000   1.0000   1.0000   1.0000   1.0000   1.0000   1.0000   0.0000
     0.0000   0.0000   0.0000

          k = 0.3333-0.0000-0.0000 (  2713 PWs)   bands (ev):

   -26.7192 -26.6985 -19.7443 -16.5905 -11.3674  -9.8749  -9.7542  -8.5304
    -8.2481  -7.6803  -6.4875  -5.5169  -4.6546  -4.2299  -3.9925   4.2207
     4.4527   6.4206   7.4491

     occupation numbers 
     1.0000   1.0000   1.0000   1.0000   1.0000   1.0000   1.0000   1.0000
     1.0000   1.0000   1.0000   1.0000   1.0000   1.0000   1.0000   0.0000
     0.0000   0.0000   0.0000

          k = 0.3333 0.1925-0.0000 (  2712 PWs)   bands (ev):

   -26.5885 -26.5732 -19.1761 -16.1199 -12.2141 -10.8747 -10.1966  -8.8977
    -7.6996  -7.4252  -6.7659  -5.9651  -4.9829  -4.3812  -3.4441   2.6666
     4.3694   5.4908   7.1931

     occupation numbers 
     1.0000   1.0000   1.0000   1.0000   1.0000   1.0000   1.0000   1.0000
     1.0000   1.0000   1.0000   1.0000   1.0000   1.0000   1.0000   0.0000
     0.0000   0.0000   0.0000

          k = 0.3333-0.7698 0.0000 (  2669 PWs)   bands (ev):

   -26.3261 -26.3206 -17.5372 -14.8089 -13.6451 -12.0273 -10.0041  -9.7095
    -9.1507  -8.3116  -7.6754  -6.4140  -5.5125  -4.6755  -4.5251   4.3056
     5.3296   6.8552   7.1740

     occupation numbers 
     1.0000   1.0000   1.0000   1.0000   1.0000   1.0000   1.0000   1.0000
     1.0000   1.0000   1.0000   1.0000   1.0000   1.0000   1.0000   0.0000
     0.0000   0.0000   0.0000

          k = 0.3333-0.5774 0.0000 (  2658 PWs)   bands (ev):

   -26.1946 -26.1944 -15.8523 -13.9800 -13.9800 -12.8776 -11.1001 -11.1001
    -8.6811  -8.6510  -8.6508  -5.9416  -5.8737  -5.8736  -4.6780   5.1403
     5.1404   8.3604   9.0402

     occupation numbers 
     1.0000   1.0000   1.0000   1.0000   1.0000   1.0000   1.0000   1.0000
     1.0000   1.0000   1.0000   1.0000   1.0000   1.0000   1.0000   0.0000
     0.0000   0.0000   0.0000

          k = 0.3333-0.3849-0.0000 (  2669 PWs)   bands (ev):

   -26.3261 -26.3206 -17.5372 -14.8089 -13.6451 -12.0273 -10.0041  -9.7095
    -9.1507  -8.3115  -7.6754  -6.4140  -5.5125  -4.6754  -4.5251   4.3056
     5.3296   6.8551   7.1740

     occupation numbers 
     1.0000   1.0000   1.0000   1.0000   1.0000   1.0000   1.0000   1.0000
     1.0000   1.0000   1.0000   1.0000   1.0000   1.0000   1.0000   0.0000
     0.0000   0.0000   0.0000

          k =-0.5000 0.2887 0.0000 (  2648 PWs)   bands (ev):

   -26.3186 -26.3159 -17.0051 -15.4210 -13.9367 -13.2106  -9.8271  -9.3048
    -8.2046  -7.8211  -7.1511  -6.8208  -5.2613  -4.5783  -3.7280   2.7135
     3.9341   4.9622   7.8528

     occupation numbers 
     1.0000   1.0000   1.0000   1.0000   1.0000   1.0000   1.0000   1.0000
     1.0000   1.0000   1.0000   1.0000   1.0000   1.0000   1.0000   0.0000
     0.0000   0.0000   0.0000

          k =-0.5000 0.4811 0.0000 (  2669 PWs)   bands (ev):

   -26.3261 -26.3206 -17.5372 -14.8089 -13.6451 -12.0273 -10.0041  -9.7095
    -9.1507  -8.3116  -7.6754  -6.4140  -5.5125  -4.6754  -4.5251   4.3056
     5.3296   6.8552   7.1739

     occupation numbers 
     1.0000   1.0000   1.0000   1.0000   1.0000   1.0000   1.0000   1.0000
     1.0000   1.0000   1.0000   1.0000   1.0000   1.0000   1.0000   0.0000
     0.0000   0.0000   0.0000

          k =-0.5000 0.6736 0.0000 (  2669 PWs)   bands (ev):

   -26.3261 -26.3206 -17.5372 -14.8089 -13.6451 -12.0273 -10.0041  -9.7095
    -9.1507  -8.3116  -7.6754  -6.4140  -5.5125  -4.6755  -4.5251   4.3056
     5.3296   6.8552   7.1740

     occupation numbers 
     1.0000   1.0000   1.0000   1.0000   1.0000   1.0000   1.0000   1.0000
     1.0000   1.0000   1.0000   1.0000   1.0000   1.0000   1.0000   0.0000
     0.0000   0.0000   0.0000

          k =-0.5000-0.2887 0.0001 (  2648 PWs)   bands (ev):

   -26.3186 -26.3159 -17.0051 -15.4211 -13.9367 -13.2106  -9.8270  -9.3048
    -8.2046  -7.8211  -7.1511  -6.8208  -5.2613  -4.5783  -3.7280   2.7135
     3.9340   4.9623   7.8532

     occupation numbers 
     1.0000   1.0000   1.0000   1.0000   1.0000   1.0000   1.0000   1.0000
     1.0000   1.0000   1.0000   1.0000   1.0000   1.0000   1.0000   0.0000
     0.0000   0.0000   0.0000

     the Fermi energy is     0.2216 ev

!    total energy              =    -189.91245924 Ry
     Harris-Foulkes estimate   =    -189.91245924 Ry
     estimated scf accuracy    <          3.9E-10 Ry

     total all-electron energy =      -701.884574 Ry

     The total energy is the sum of the following terms:

     one-electron contribution =   -1506.80999920 Ry
     hartree contribution      =     763.02228217 Ry
     xc contribution           =     -37.15487110 Ry
     ewald contribution        =     636.01910727 Ry
     one-center paw contrib.   =     -44.98897838 Ry
      -> PAW hartree energy AE =     119.56327434 Ry
      -> PAW hartree energy PS =    -119.48221538 Ry
      -> PAW xc energy AE      =     -80.62472409 Ry
      -> PAW xc energy PS      =      35.55468674 Ry
      -> total E_H with PAW    =     763.10334114 Ry
      -> total E_XC with PAW   =     -82.22490845 Ry
     smearing contrib. (-TS)   =      -0.00000000 Ry

     convergence has been achieved in  12 iterations

     negative rho (up, down):  6.156E-04 0.000E+00

     Forces acting on atoms (cartesian axes, Ry/au):

     atom    1 type  1   force =    -0.00000091   -0.00000105   -0.01233154
     atom    2 type  1   force =    -0.00000306   -0.00000232    0.00047703
     atom    3 type  1   force =     0.00000030    0.00000077    0.01233260
     atom    4 type  1   force =     0.00000197    0.00000172   -0.00053214
     atom    5 type  2   force =     0.00000165    0.00000134    0.01878067
     atom    6 type  2   force =     0.00000004   -0.00000047   -0.01872661
     The non-local contrib.  to forces
     atom    1 type  1   force =    -0.00000357   -0.00000345   -0.40370298
     atom    2 type  1   force =    -0.00000642   -0.00000461    0.08254470
     atom    3 type  1   force =     0.00000160    0.00000237    0.40371022
     atom    4 type  1   force =     0.00000401    0.00000329   -0.08256616
     atom    5 type  2   force =     0.00004309    0.00003185    3.17621475
     atom    6 type  2   force =    -0.00001768   -0.00001755   -3.17620208
     The ionic contribution  to forces
     atom    1 type  1   force =     0.00006601    0.00004732  -13.36767802
     atom    2 type  1   force =    -0.00000457    0.00000014   -9.40120984
     atom    3 type  1   force =    -0.00002607   -0.00002490   13.36783775
     atom    4 type  1   force =    -0.00000452   -0.00000517    9.40118888
     atom    5 type  2   force =    -0.00005247   -0.00003943  -66.85280486
     atom    6 type  2   force =     0.00002161    0.00002204   66.85266609
     The local contribution  to forces
     atom    1 type  1   force =    -0.00006300   -0.00004465   13.75103343
     atom    2 type  1   force =     0.00000787    0.00000203    9.32029997
     atom    3 type  1   force =     0.00002439    0.00002310  -13.75119505
     atom    4 type  1   force =     0.00000231    0.00000351   -9.32024401
     atom    5 type  2   force =     0.00001108    0.00000905   63.70544836
     atom    6 type  2   force =    -0.00000386   -0.00000486  -63.70534331
     The core correction contribution to forces
     atom    1 type  1   force =    -0.00000032   -0.00000017    0.00796831
     atom    2 type  1   force =     0.00000018    0.00000010   -0.00120891
     atom    3 type  1   force =     0.00000044    0.00000025   -0.00805231
     atom    4 type  1   force =     0.00000018    0.00000011    0.00105991
     atom    5 type  2   force =    -0.00000009   -0.00000008   -0.01011146
     atom    6 type  2   force =    -0.00000001    0.00000002    0.01010968
     The Hubbard contrib.    to forces
     atom    1 type  1   force =     0.00000000    0.00000000    0.00000000
     atom    2 type  1   force =     0.00000000    0.00000000    0.00000000
     atom    3 type  1   force =     0.00000000    0.00000000    0.00000000
     atom    4 type  1   force =     0.00000000    0.00000000    0.00000000
     atom    5 type  2   force =     0.00000000    0.00000000    0.00000000
     atom    6 type  2   force =     0.00000000    0.00000000    0.00000000
     The SCF correction term to forces
     atom    1 type  1   force =     0.00000004   -0.00000006    0.00001001
     atom    2 type  1   force =    -0.00000004    0.00000005    0.00001339
     atom    3 type  1   force =     0.00000001   -0.00000000   -0.00000574
     atom    4 type  1   force =     0.00000006    0.00000002   -0.00000847
     atom    5 type  2   force =     0.00000012   -0.00000002   -0.00000383
     atom    6 type  2   force =     0.00000006   -0.00000008    0.00000529

     Total force =     0.031750     Total SCF correction =     0.000021


     Computing stress (Cartesian axis) and pressure


     negative rho (up, down):  6.156E-04 0.000E+00
          total   stress  (Ry/bohr**3)                   (kbar)     P=  -65.60
  -0.00044752  -0.00000000  -0.00000011        -65.83     -0.00     -0.02
  -0.00000000  -0.00044751  -0.00000006         -0.00    -65.83     -0.01
  -0.00000011  -0.00000006  -0.00044277         -0.02     -0.01    -65.13

     kinetic stress (kbar)   9167.64      0.00     -0.01
                                0.00   9167.64     -0.01
                               -0.01     -0.01   8324.52

     local   stress (kbar)-286813.91      0.01     -0.03
                                0.01-286813.93     -0.02
                               -0.03     -0.02 276361.04

     nonloc. stress (kbar)   3106.55     -0.00     -0.01
                               -0.00   3106.55     -0.01
                               -0.01     -0.01   2849.66

     hartree stress (kbar) 141377.52     -0.00      0.01
                               -0.00 141377.52      0.01
                                0.01      0.01-136839.76

     exc-cor stress (kbar)  -1129.81     -0.00      0.00
                               -0.00  -1129.81      0.00
                                0.00      0.00  -1126.40

     corecor stress (kbar)   -939.16      0.00     -0.00
                                0.00   -939.16      0.00
                               -0.00      0.00   -931.50

     ewald   stress (kbar) 135165.36     -0.01      0.03
                               -0.01 135165.37      0.02
                                0.03      0.02-148702.69

     hubbard stress (kbar)      0.00      0.00      0.00
                                0.00      0.00      0.00
                                0.00      0.00      0.00

     london  stress (kbar)      0.00      0.00      0.00
                                0.00      0.00      0.00
                                0.00      0.00      0.00

     DFT-D3  stress (kbar)      0.00      0.00      0.00
                                0.00      0.00      0.00
                                0.00      0.00      0.00

     XDM     stress (kbar)      0.00      0.00      0.00
                                0.00      0.00      0.00
                                0.00      0.00      0.00

     dft-nl  stress (kbar)      0.00      0.00      0.00
                                0.00      0.00      0.00
                                0.00      0.00      0.00

     TS-vdW  stress (kbar)      0.00      0.00      0.00
                                0.00      0.00      0.00
                                0.00      0.00      0.00

     3D-RISM stress (kbar)      0.00      0.00      0.00
                                0.00      0.00      0.00
                                0.00      0.00      0.00



     Writing output data file pwscf.save\

     init_run     :     10.70s CPU      5.54s WALL (       1 calls)
     electrons    :     59.83s CPU     42.46s WALL (       1 calls)
     forces       :      7.16s CPU      1.24s WALL (       1 calls)
     stress       :     17.92s CPU      3.28s WALL (       1 calls)

     Called by init_run:
     wfcinit      :      0.86s CPU      0.72s WALL (       1 calls)
     wfcinit:atom :      0.06s CPU      0.03s WALL (      20 calls)
     wfcinit:wfcr :      0.75s CPU      0.56s WALL (      20 calls)
     potinit      :      3.91s CPU      0.63s WALL (       1 calls)
     hinit0       :      5.89s CPU      4.04s WALL (       1 calls)

     Called by electrons:
     c_bands      :     46.20s CPU     33.33s WALL (      12 calls)
     sum_band     :      6.81s CPU      5.11s WALL (      12 calls)
     v_of_rho     :      1.89s CPU      0.95s WALL (      13 calls)
     v_h          :      0.11s CPU      0.05s WALL (      13 calls)
     v_xc         :      2.09s CPU      1.03s WALL (      15 calls)
     newd         :      1.45s CPU      1.21s WALL (      13 calls)
     PAW_pot      :      3.56s CPU      1.91s WALL (      13 calls)
     mix_rho      :      0.20s CPU      0.16s WALL (      12 calls)

     Called by c_bands:
     init_us_2    :      0.27s CPU      0.28s WALL (     540 calls)
     ccgdiagg     :     39.42s CPU     28.13s WALL (     240 calls)
     wfcrot       :      7.27s CPU      5.44s WALL (     240 calls)

     Called by sum_band:
     sum_band:bec :      0.08s CPU      0.13s WALL (     240 calls)
     addusdens    :      2.06s CPU      1.77s WALL (      12 calls)

     Called by *cgdiagg:
     h_psi        :     31.45s CPU     22.84s WALL (   11985 calls)
     s_psi        :      4.75s CPU      3.53s WALL (   23730 calls)
     cdiaghg      :      0.03s CPU      0.05s WALL (     240 calls)

     Called by h_psi:
     h_psi:pot    :     30.17s CPU     21.37s WALL (   11985 calls)
     h_psi:calbec :      7.03s CPU      3.68s WALL (   11985 calls)
     vloc_psi     :     18.89s CPU     15.24s WALL (   11985 calls)
     add_vuspsi   :      4.12s CPU      2.41s WALL (   11985 calls)
     hs_1psi      :     30.11s CPU     21.13s WALL (   11745 calls)
     s_1psi       :      5.89s CPU      4.66s WALL (   11745 calls)

     General routines
     calbec       :      9.47s CPU      5.43s WALL (   24070 calls)
     fft          :      0.12s CPU      0.19s WALL (     192 calls)
     ffts         :      0.00s CPU      0.01s WALL (      25 calls)
     fftw         :     11.61s CPU      8.62s WALL (   37370 calls)
     interpolate  :      0.05s CPU      0.04s WALL (      13 calls)

     Parallel routines

     PAW routines
     PAW_pot      :      3.56s CPU      1.91s WALL (      13 calls)

     PWSCF        :   1m37.11s CPU     54.78s WALL


   This run was terminated on:  15:41:35  19Nov2024            

=------------------------------------------------------------------------------=
   JOB DONE.
=------------------------------------------------------------------------------=
