
     Program PWSCF v.6.4.1 starts on 19Nov2024 at 15:37:39 

     This program is part of the open-source Quantum ESPRESSO suite
     for quantum simulation of materials; please cite
         "P. Giannozzi et al., J. Phys.:Condens. Matter 21 395502 (2009);
         "P. Giannozzi et al., J. Phys.:Condens. Matter 29 465901 (2017);
          URL http://www.quantum-espresso.org", 
     in publications or presentations arising from this work. More details at
     http://www.quantum-espresso.org/quote

     Parallel version (MPI & OpenMP), running on      12 processor cores
     Number of MPI processes:                 1
     Threads/MPI process:                    12

     MPI processes distributed on     1 nodes
     Waiting for input...
     Reading input from standard input

     Current dimensions of program PWSCF are:
     Max number of different atomic species (ntypx) = 10
     Max number of k-points (npk) =  40000
     Max angular momentum in pseudopotentials (lmaxx) =  3
               file C.pbesol-n-kjpaw_psl.1.0.0.UPF: wavefunction(s)  2S 2P renormalized
               file F.pbesol-n-kjpaw_psl.1.0.0.UPF: wavefunction(s)  2S 2P renormalized

     Subspace diagonalization in iterative solution of the eigenvalue problem:
     a serial algorithm will be used


     G-vector sticks info
     --------------------
     sticks:   dense  smooth     PW     G-vecs:    dense   smooth      PW
     Sum         583      91     37                88889     5943    1559



     bravais-lattice index     =            0
     lattice parameter (alat)  =       4.8507  a.u.
     unit-cell volume          =     769.2439 (a.u.)^3
     number of atoms/cell      =            6
     number of atomic types    =            2
     number of electrons       =        30.00
     number of Kohn-Sham states=           19
     kinetic-energy cutoff     =      15.0000  Ry
     charge density cutoff     =     360.0000  Ry
     convergence threshold     =      1.2E-09
     mixing beta               =       0.4000
     number of iterations used =            8  plain     mixing
     Exchange-correlation      = SLA PW PSX PSC ( 1  4 10  8 0 0)

     celldm(1)=   4.850737  celldm(2)=   0.000000  celldm(3)=   0.000000
     celldm(4)=   0.000000  celldm(5)=   0.000000  celldm(6)=   0.000000

     crystal axes: (cart. coord. in units of alat)
               a(1) = (   1.000000   0.000000   0.000000 )  
               a(2) = (   0.500000   0.866025   0.000000 )  
               a(3) = (   0.000640   0.000376   7.782340 )  

     reciprocal axes: (cart. coord. in units 2 pi/alat)
               b(1) = (  1.000000 -0.577350 -0.000054 )  
               b(2) = (  0.000000  1.154701 -0.000056 )  
               b(3) = (  0.000000  0.000000  0.128496 )  


     PseudoPot. # 1 for C  read from file:
     .\C.pbesol-n-kjpaw_psl.1.0.0.UPF
     MD5 check sum: f9b2fe17d1f478429498b05d17159f9e
     Pseudo is Projector augmented-wave + core cor, Zval =  4.0
     Generated using "atomic" code by A. Dal Corso v.6.3
     Shape of augmentation charge: PSQ
     Using radial grid of 1073 points,  4 beta functions with: 
                l(1) =   0
                l(2) =   0
                l(3) =   1
                l(4) =   1
     Q(r) pseudized with 0 coefficients 


     PseudoPot. # 2 for F  read from file:
     .\F.pbesol-n-kjpaw_psl.1.0.0.UPF
     MD5 check sum: d939582bcd23f1ece12cfc4fab8d9d36
     Pseudo is Projector augmented-wave + core cor, Zval =  7.0
     Generated using "atomic" code by A. Dal Corso v.6.3
     Shape of augmentation charge: PSQ
     Using radial grid of 1105 points,  4 beta functions with: 
                l(1) =   0
                l(2) =   0
                l(3) =   1
                l(4) =   1
     Q(r) pseudized with 0 coefficients 


     atomic species   valence    mass     pseudopotential
        C              4.00    12.01070     C ( 1.00)
        F              7.00    18.99840     F ( 1.00)

     No symmetry found


                                    s                        frac. trans.

      isym =  1     identity                                     

 cryst.   s( 1) = (     1          0          0      )
                  (     0          1          0      )
                  (     0          0          1      )

 cart.    s( 1) = (  1.0000000  0.0000000  0.0000000 )
                  (  0.0000000  1.0000000  0.0000000 )
                  (  0.0000000  0.0000000  1.0000000 )


   Cartesian axes

     site n.     atom                  positions (alat units)
         1           C   tau(   1) = (   0.0003519   0.0002070   3.9178512  )
         2           C   tau(   2) = (   0.5003526   0.2888824   4.1138039  )
         3           C   tau(   3) = (   1.0003491   0.5775541   4.9151223  )
         4           C   tau(   4) = (   0.5003488   0.2888789   4.7191654  )
         5           F   tau(   5) = (   0.0003452   0.0002019   3.3809522  )
         6           F   tau(   6) = (   1.0003518   0.5775569   5.4520245  )

   Crystallographic axes

     site n.     atom                  positions (cryst. coord.)
         1           C   tau(   1) = (  0.0000192  0.0000206  0.5034284  )
         2           C   tau(   2) = (  0.3333424  0.3333434  0.5286075  )
         3           C   tau(   3) = (  0.6666304  0.6666281  0.6315738  )
         4           C   tau(   4) = (  0.3333076  0.3333056  0.6063941  )
         5           F   tau(   5) = (  0.0000446  0.0000447  0.4344390  )
         6           F   tau(   6) = (  0.6666024  0.6666014  0.7005636  )

     number of k points=    20  Marzari-Vanderbilt smearing, width (Ry)=  0.0200
                       cart. coord. in units 2pi/alat
        k(    1) = (   0.0000000   0.0000000   0.0000000), wk =   0.0555556
        k(    2) = (   0.0000000   0.1924501  -0.0000093), wk =   0.1111111
        k(    3) = (   0.0000000   0.3849002  -0.0000186), wk =   0.1111111
        k(    4) = (   0.0000000  -0.5773503   0.0000279), wk =   0.0555556
        k(    5) = (   0.1666667  -0.0962251  -0.0000091), wk =   0.1111111
        k(    6) = (   0.1666667   0.0962250  -0.0000184), wk =   0.1111111
        k(    7) = (   0.1666667   0.2886751  -0.0000277), wk =   0.1111111
        k(    8) = (   0.1666667  -0.6735754   0.0000188), wk =   0.1111111
        k(    9) = (   0.1666667  -0.4811253   0.0000095), wk =   0.1111111
        k(   10) = (   0.1666667  -0.2886752   0.0000002), wk =   0.1111111
        k(   11) = (   0.3333333  -0.1924501  -0.0000181), wk =   0.1111111
        k(   12) = (   0.3333333  -0.0000000  -0.0000274), wk =   0.1111111
        k(   13) = (   0.3333333   0.1924501  -0.0000367), wk =   0.1111111
        k(   14) = (   0.3333333  -0.7698005   0.0000097), wk =   0.1111111
        k(   15) = (   0.3333333  -0.5773504   0.0000004), wk =   0.1111111
        k(   16) = (   0.3333333  -0.3849003  -0.0000088), wk =   0.1111111
        k(   17) = (  -0.5000000   0.2886752   0.0000272), wk =   0.0555556
        k(   18) = (  -0.5000000   0.4811253   0.0000179), wk =   0.1111111
        k(   19) = (  -0.5000000   0.6735754   0.0000086), wk =   0.1111111
        k(   20) = (  -0.5000000  -0.2886751   0.0000551), wk =   0.0555556

                       cryst. coord.
        k(    1) = (   0.0000000   0.0000000   0.0000000), wk =   0.0555556
        k(    2) = (   0.0000000   0.1666667   0.0000000), wk =   0.1111111
        k(    3) = (   0.0000000   0.3333333   0.0000000), wk =   0.1111111
        k(    4) = (   0.0000000  -0.5000000  -0.0000000), wk =   0.0555556
        k(    5) = (   0.1666667   0.0000000   0.0000000), wk =   0.1111111
        k(    6) = (   0.1666667   0.1666667   0.0000000), wk =   0.1111111
        k(    7) = (   0.1666667   0.3333333   0.0000000), wk =   0.1111111
        k(    8) = (   0.1666667  -0.5000000   0.0000000), wk =   0.1111111
        k(    9) = (   0.1666667  -0.3333333   0.0000000), wk =   0.1111111
        k(   10) = (   0.1666667  -0.1666667   0.0000000), wk =   0.1111111
        k(   11) = (   0.3333333   0.0000000   0.0000000), wk =   0.1111111
        k(   12) = (   0.3333333   0.1666667   0.0000000), wk =   0.1111111
        k(   13) = (   0.3333333   0.3333333   0.0000000), wk =   0.1111111
        k(   14) = (   0.3333333  -0.5000000   0.0000000), wk =   0.1111111
        k(   15) = (   0.3333333  -0.3333333   0.0000000), wk =   0.1111111
        k(   16) = (   0.3333333  -0.1666667   0.0000000), wk =   0.1111111
        k(   17) = (  -0.5000000   0.0000000  -0.0000000), wk =   0.0555556
        k(   18) = (  -0.5000000   0.1666667  -0.0000000), wk =   0.1111111
        k(   19) = (  -0.5000000   0.3333333  -0.0000000), wk =   0.1111111
        k(   20) = (  -0.5000000  -0.5000000  -0.0000000), wk =   0.0555556

     Dense  grid:    88889 G-vectors     FFT dimensions: (  30,  30, 240)

     Smooth grid:     5943 G-vectors     FFT dimensions: (  12,  12,  96)

     Dynamical RAM for                 wfc:       0.22 MB

     Dynamical RAM for     wfc (w. buffer):       4.60 MB

     Dynamical RAM for           str. fact:       2.71 MB

     Dynamical RAM for           local pot:       0.00 MB

     Dynamical RAM for          nlocal pot:       0.55 MB

     Dynamical RAM for                qrad:       0.67 MB

     Dynamical RAM for          rho,v,vnew:       9.01 MB

     Dynamical RAM for               rhoin:       3.00 MB

     Dynamical RAM for            rho*nmix:      21.70 MB

     Dynamical RAM for           G-vectors:       5.13 MB

     Dynamical RAM for          h,s,v(r/c):       0.02 MB

     Dynamical RAM for          <psi|beta>:       0.01 MB

     Dynamical RAM for      wfcinit/wfcrot:       0.57 MB

     Dynamical RAM for           addusdens:      63.75 MB

     Dynamical RAM for          addusforce:      80.71 MB

     Dynamical RAM for         addusstress:      67.82 MB

     Estimated static dynamical RAM per process >      59.69 MB

     Estimated max dynamical RAM per process >     140.40 MB

     Check: negative core charge=   -0.000005

     Initial potential from superposition of free atoms

     starting charge   29.99983, renormalised to   30.00000

     negative rho (up, down):  5.058E-04 0.000E+00
     Starting wfcs are   24 randomized atomic wfcs
     Checking if some PAW data can be deallocated... 

     total cpu time spent up to now is        7.5 secs

     Self-consistent Calculation

     iteration #  1     ecut=    15.00 Ry     beta= 0.40
     CG style diagonalization
     ethr =  1.00E-02,  avg # of iterations =  3.2

     negative rho (up, down):  3.300E-05 0.000E+00

     total cpu time spent up to now is        9.9 secs

     total energy              =    -185.10870463 Ry
     Harris-Foulkes estimate   =    -185.94491878 Ry
     estimated scf accuracy    <       1.73770108 Ry

     iteration #  2     ecut=    15.00 Ry     beta= 0.40
     CG style diagonalization
     ethr =  5.79E-03,  avg # of iterations =  3.5

     negative rho (up, down):  5.667E-05 0.000E+00

     total cpu time spent up to now is       12.0 secs

     total energy              =    -185.27517760 Ry
     Harris-Foulkes estimate   =    -185.42641463 Ry
     estimated scf accuracy    <       0.39058046 Ry

     iteration #  3     ecut=    15.00 Ry     beta= 0.40
     CG style diagonalization
     ethr =  1.30E-03,  avg # of iterations =  3.4

     negative rho (up, down):  7.613E-04 0.000E+00

     total cpu time spent up to now is       14.2 secs

     total energy              =    -185.30278370 Ry
     Harris-Foulkes estimate   =    -185.33168088 Ry
     estimated scf accuracy    <       0.08856798 Ry

     iteration #  4     ecut=    15.00 Ry     beta= 0.40
     CG style diagonalization
     ethr =  2.95E-04,  avg # of iterations =  3.2

     negative rho (up, down):  1.656E-03 0.000E+00

     total cpu time spent up to now is       16.3 secs

     total energy              =    -185.30525083 Ry
     Harris-Foulkes estimate   =    -185.30916659 Ry
     estimated scf accuracy    <       0.01178705 Ry

     iteration #  5     ecut=    15.00 Ry     beta= 0.40
     CG style diagonalization
     c_bands:  1 eigenvalues not converged
     c_bands:  1 eigenvalues not converged
     c_bands:  1 eigenvalues not converged
     c_bands:  1 eigenvalues not converged
     ethr =  3.93E-05,  avg # of iterations =  3.8

     negative rho (up, down):  6.598E-04 0.000E+00

     total cpu time spent up to now is       18.8 secs

     total energy              =    -185.30597294 Ry
     Harris-Foulkes estimate   =    -185.30668814 Ry
     estimated scf accuracy    <       0.00154192 Ry

     iteration #  6     ecut=    15.00 Ry     beta= 0.40
     CG style diagonalization
     c_bands:  1 eigenvalues not converged
     c_bands:  1 eigenvalues not converged
     ethr =  5.14E-06,  avg # of iterations =  3.9

     negative rho (up, down):  1.365E-04 0.000E+00

     total cpu time spent up to now is       21.1 secs

     total energy              =    -185.30634963 Ry
     Harris-Foulkes estimate   =    -185.30636104 Ry
     estimated scf accuracy    <       0.00005323 Ry

     iteration #  7     ecut=    15.00 Ry     beta= 0.40
     CG style diagonalization
     ethr =  1.77E-07,  avg # of iterations =  4.0

     negative rho (up, down):  1.724E-05 0.000E+00

     total cpu time spent up to now is       23.3 secs

     total energy              =    -185.30640394 Ry
     Harris-Foulkes estimate   =    -185.30638955 Ry
     estimated scf accuracy    <       0.00002360 Ry

     iteration #  8     ecut=    15.00 Ry     beta= 0.40
     CG style diagonalization
     ethr =  7.87E-08,  avg # of iterations =  3.4

     negative rho (up, down):  2.283E-06 0.000E+00

     total cpu time spent up to now is       25.3 secs

     total energy              =    -185.30642069 Ry
     Harris-Foulkes estimate   =    -185.30640789 Ry
     estimated scf accuracy    <       0.00000135 Ry

     iteration #  9     ecut=    15.00 Ry     beta= 0.40
     CG style diagonalization
     ethr =  4.49E-09,  avg # of iterations =  3.8

     negative rho (up, down):  5.725E-07 0.000E+00

     total cpu time spent up to now is       27.6 secs

     total energy              =    -185.30642697 Ry
     Harris-Foulkes estimate   =    -185.30642133 Ry
     estimated scf accuracy    <       0.00000098 Ry

     iteration # 10     ecut=    15.00 Ry     beta= 0.40
     CG style diagonalization
     ethr =  3.26E-09,  avg # of iterations =  3.2

     negative rho (up, down):  3.311E-07 0.000E+00

     total cpu time spent up to now is       30.0 secs

     total energy              =    -185.30642913 Ry
     Harris-Foulkes estimate   =    -185.30642713 Ry
     estimated scf accuracy    <       0.00000009 Ry

     iteration # 11     ecut=    15.00 Ry     beta= 0.40
     CG style diagonalization
     ethr =  2.93E-10,  avg # of iterations =  3.4

     negative rho (up, down):  2.662E-07 0.000E+00

     total cpu time spent up to now is       32.1 secs

     total energy              =    -185.30642987 Ry
     Harris-Foulkes estimate   =    -185.30642914 Ry
     estimated scf accuracy    <       0.00000001 Ry

     iteration # 12     ecut=    15.00 Ry     beta= 0.40
     CG style diagonalization
     ethr =  4.93E-11,  avg # of iterations =  3.7

     negative rho (up, down):  2.401E-07 0.000E+00

     total cpu time spent up to now is       34.3 secs

     total energy              =    -185.30643012 Ry
     Harris-Foulkes estimate   =    -185.30642987 Ry
     estimated scf accuracy    <          6.2E-09 Ry

     iteration # 13     ecut=    15.00 Ry     beta= 0.40
     CG style diagonalization
     c_bands:  1 eigenvalues not converged
     ethr =  2.08E-11,  avg # of iterations =  3.4

     negative rho (up, down):  2.091E-07 0.000E+00

     total cpu time spent up to now is       36.5 secs

     End of self-consistent calculation

          k = 0.0000 0.0000 0.0000 (   689 PWs)   bands (ev):

   -31.3411 -31.3261 -22.1842 -19.0233 -12.8359  -9.8687  -5.7499  -4.9554
    -4.9553  -4.4709  -4.4706  -1.9922  -1.9921  -0.5972  -0.5972   1.9876
     4.1241   5.7144   5.7147

     occupation numbers 
     1.0000   1.0000   1.0000   1.0000   1.0000   1.0000   1.0000   1.0000
     1.0000   1.0000   1.0000   1.0000   1.0000   1.0000   1.0000   0.0000
     0.0000   0.0000   0.0000

          k = 0.0000 0.1925-0.0000 (   737 PWs)   bands (ev):

   -31.2976 -31.2690 -21.5724 -18.4814 -12.5142  -9.8851  -7.9310  -7.2556
    -6.0326  -5.9101  -5.4425  -4.1855  -3.4471  -2.8803  -1.4985   3.0018
     4.2244   5.7998   5.9781

     occupation numbers 
     1.0000   1.0000   1.0000   1.0000   1.0000   1.0000   1.0000   1.0000
     1.0000   1.0000   1.0000   1.0000   1.0000   1.0000   1.0000   0.0000
     0.0000   0.0000   0.0000

          k = 0.0000 0.3849-0.0000 (   753 PWs)   bands (ev):

   -31.0166 -30.9897 -19.7322 -16.8635 -12.6286 -11.4127 -10.3307  -9.0976
    -7.5935  -7.2558  -6.5930  -6.2954  -4.9855  -3.9026  -2.7331   2.6802
     4.6685   5.4135   7.0374

     occupation numbers 
     1.0000   1.0000   1.0000   1.0000   1.0000   1.0000   1.0000   1.0000
     1.0000   1.0000   1.0000   1.0000   1.0000   1.0000   1.0000   0.0000
     0.0000   0.0000   0.0000

          k = 0.0000-0.5774 0.0000 (   756 PWs)   bands (ev):

   -30.8750 -30.8131 -17.4631 -15.9388 -14.1625 -13.9020 -10.1669  -9.5497
    -8.1750  -7.6710  -7.6347  -6.6946  -5.3721  -4.0419  -3.1967   2.6803
     4.1064   5.0477   7.8641

     occupation numbers 
     1.0000   1.0000   1.0000   1.0000   1.0000   1.0000   1.0000   1.0000
     1.0000   1.0000   1.0000   1.0000   1.0000   1.0000   1.0000   0.0000
     0.0000   0.0000   0.0000

          k = 0.1667-0.0962-0.0000 (   737 PWs)   bands (ev):

   -31.2976 -31.2690 -21.5724 -18.4814 -12.5142  -9.8851  -7.9310  -7.2556
    -6.0326  -5.9101  -5.4425  -4.1855  -3.4471  -2.8803  -1.4985   3.0017
     4.2244   5.7998   5.9776

     occupation numbers 
     1.0000   1.0000   1.0000   1.0000   1.0000   1.0000   1.0000   1.0000
     1.0000   1.0000   1.0000   1.0000   1.0000   1.0000   1.0000   0.0000
     0.0000   0.0000   0.0000

          k = 0.1667 0.0962-0.0000 (   737 PWs)   bands (ev):

   -31.2976 -31.2690 -21.5724 -18.4814 -12.5141  -9.8852  -7.9308  -7.2557
    -6.0326  -5.9099  -5.4426  -4.1854  -3.4474  -2.8803  -1.4985   3.0018
     4.2244   5.7998   5.9777

     occupation numbers 
     1.0000   1.0000   1.0000   1.0000   1.0000   1.0000   1.0000   1.0000
     1.0000   1.0000   1.0000   1.0000   1.0000   1.0000   1.0000   0.0000
     0.0000   0.0000   0.0000

          k = 0.1667 0.2887-0.0000 (   765 PWs)   bands (ev):

   -31.1158 -31.1155 -20.3420 -17.3869 -12.1332 -10.4896  -9.6786  -8.5782
    -8.3410  -7.6977  -6.3821  -6.0042  -4.7968  -4.0798  -3.6200   4.5277
     4.7089   6.7235   7.5261

     occupation numbers 
     1.0000   1.0000   1.0000   1.0000   1.0000   1.0000   1.0000   1.0000
     1.0000   1.0000   1.0000   1.0000   1.0000   1.0000   1.0000   0.0000
     0.0000   0.0000   0.0000

          k = 0.1667-0.6736 0.0000 (   763 PWs)   bands (ev):

   -30.8710 -30.8453 -18.0020 -15.4778 -13.9186 -12.4934 -10.1170  -9.8670
    -9.2645  -8.2511  -7.7803  -6.9193  -5.6352  -4.6907  -4.4700   4.4237
     5.6165   7.3530   7.4665

     occupation numbers 
     1.0000   1.0000   1.0000   1.0000   1.0000   1.0000   1.0000   1.0000
     1.0000   1.0000   1.0000   1.0000   1.0000   1.0000   1.0000   0.0000
     0.0000   0.0000   0.0000

          k = 0.1667-0.4811 0.0000 (   763 PWs)   bands (ev):

   -30.8710 -30.8453 -18.0020 -15.4778 -13.9186 -12.4935 -10.1170  -9.8669
    -9.2647  -8.2508  -7.7804  -6.9194  -5.6352  -4.6908  -4.4698   4.4236
     5.6165   7.3530   7.4665

     occupation numbers 
     1.0000   1.0000   1.0000   1.0000   1.0000   1.0000   1.0000   1.0000
     1.0000   1.0000   1.0000   1.0000   1.0000   1.0000   1.0000   0.0000
     0.0000   0.0000   0.0000

          k = 0.1667-0.2887 0.0000 (   765 PWs)   bands (ev):

   -31.1158 -31.1155 -20.3419 -17.3869 -12.1333 -10.4896  -9.6787  -8.5782
    -8.3410  -7.6976  -6.3825  -6.0043  -4.7967  -4.0799  -3.6195   4.5277
     4.7089   6.7235   7.5262

     occupation numbers 
     1.0000   1.0000   1.0000   1.0000   1.0000   1.0000   1.0000   1.0000
     1.0000   1.0000   1.0000   1.0000   1.0000   1.0000   1.0000   0.0000
     0.0000   0.0000   0.0000

          k = 0.3333-0.1925-0.0000 (   753 PWs)   bands (ev):

   -31.0166 -30.9897 -19.7322 -16.8635 -12.6286 -11.4127 -10.3307  -9.0976
    -7.5935  -7.2558  -6.5930  -6.2954  -4.9855  -3.9026  -2.7331   2.6802
     4.6685   5.4135   7.0374

     occupation numbers 
     1.0000   1.0000   1.0000   1.0000   1.0000   1.0000   1.0000   1.0000
     1.0000   1.0000   1.0000   1.0000   1.0000   1.0000   1.0000   0.0000
     0.0000   0.0000   0.0000

          k = 0.3333-0.0000-0.0000 (   765 PWs)   bands (ev):

   -31.1158 -31.1155 -20.3419 -17.3869 -12.1332 -10.4896  -9.6786  -8.5782
    -8.3410  -7.6977  -6.3821  -6.0042  -4.7968  -4.0798  -3.6200   4.5277
     4.7088   6.7235   7.5261

     occupation numbers 
     1.0000   1.0000   1.0000   1.0000   1.0000   1.0000   1.0000   1.0000
     1.0000   1.0000   1.0000   1.0000   1.0000   1.0000   1.0000   0.0000
     0.0000   0.0000   0.0000

          k = 0.3333 0.1925-0.0000 (   753 PWs)   bands (ev):

   -31.0166 -30.9897 -19.7322 -16.8635 -12.6285 -11.4127 -10.3304  -9.0981
    -7.5930  -7.2558  -6.5931  -6.2954  -4.9855  -3.9027  -2.7331   2.6802
     4.6684   5.4134   7.0374

     occupation numbers 
     1.0000   1.0000   1.0000   1.0000   1.0000   1.0000   1.0000   1.0000
     1.0000   1.0000   1.0000   1.0000   1.0000   1.0000   1.0000   0.0000
     0.0000   0.0000   0.0000

          k = 0.3333-0.7698 0.0000 (   763 PWs)   bands (ev):

   -30.8709 -30.8454 -18.0020 -15.4779 -13.9184 -12.4934 -10.1170  -9.8670
    -9.2648  -8.2508  -7.7800  -6.9198  -5.6352  -4.6907  -4.4699   4.4237
     5.6164   7.3530   7.4665

     occupation numbers 
     1.0000   1.0000   1.0000   1.0000   1.0000   1.0000   1.0000   1.0000
     1.0000   1.0000   1.0000   1.0000   1.0000   1.0000   1.0000   0.0000
     0.0000   0.0000   0.0000

          k = 0.3333-0.5774 0.0000 (   771 PWs)   bands (ev):

   -30.7825 -30.7824 -16.2122 -14.5632 -14.5631 -13.1066 -11.2558 -11.2556
    -8.8118  -8.7404  -8.7402  -6.5667  -6.2479  -6.2473  -4.7459   5.3839
     5.3840   8.7685   9.8047

     occupation numbers 
     1.0000   1.0000   1.0000   1.0000   1.0000   1.0000   1.0000   1.0000
     1.0000   1.0000   1.0000   1.0000   1.0000   1.0000   1.0000   0.0000
     0.0000   0.0000   0.0000

          k = 0.3333-0.3849-0.0000 (   763 PWs)   bands (ev):

   -30.8710 -30.8453 -18.0020 -15.4778 -13.9186 -12.4935 -10.1170  -9.8669
    -9.2647  -8.2508  -7.7804  -6.9194  -5.6352  -4.6908  -4.4698   4.4236
     5.6164   7.3531   7.4665

     occupation numbers 
     1.0000   1.0000   1.0000   1.0000   1.0000   1.0000   1.0000   1.0000
     1.0000   1.0000   1.0000   1.0000   1.0000   1.0000   1.0000   0.0000
     0.0000   0.0000   0.0000

          k =-0.5000 0.2887 0.0000 (   756 PWs)   bands (ev):

   -30.8750 -30.8131 -17.4631 -15.9388 -14.1625 -13.9020 -10.1669  -9.5497
    -8.1751  -7.6710  -7.6347  -6.6946  -5.3721  -4.0419  -3.1967   2.6803
     4.1064   5.0477   7.8641

     occupation numbers 
     1.0000   1.0000   1.0000   1.0000   1.0000   1.0000   1.0000   1.0000
     1.0000   1.0000   1.0000   1.0000   1.0000   1.0000   1.0000   0.0000
     0.0000   0.0000   0.0000

          k =-0.5000 0.4811 0.0000 (   763 PWs)   bands (ev):

   -30.8710 -30.8453 -18.0020 -15.4778 -13.9186 -12.4934 -10.1170  -9.8670
    -9.2645  -8.2511  -7.7803  -6.9193  -5.6352  -4.6907  -4.4700   4.4236
     5.6164   7.3531   7.4665

     occupation numbers 
     1.0000   1.0000   1.0000   1.0000   1.0000   1.0000   1.0000   1.0000
     1.0000   1.0000   1.0000   1.0000   1.0000   1.0000   1.0000   0.0000
     0.0000   0.0000   0.0000

          k =-0.5000 0.6736 0.0000 (   763 PWs)   bands (ev):

   -30.8709 -30.8454 -18.0020 -15.4779 -13.9184 -12.4934 -10.1170  -9.8670
    -9.2648  -8.2508  -7.7800  -6.9198  -5.6352  -4.6907  -4.4699   4.4236
     5.6164   7.3530   7.4665

     occupation numbers 
     1.0000   1.0000   1.0000   1.0000   1.0000   1.0000   1.0000   1.0000
     1.0000   1.0000   1.0000   1.0000   1.0000   1.0000   1.0000   0.0000
     0.0000   0.0000   0.0000

          k =-0.5000-0.2887 0.0001 (   756 PWs)   bands (ev):

   -30.8751 -30.8131 -17.4631 -15.9388 -14.1624 -13.9020 -10.1673  -9.5495
    -8.1749  -7.6707  -7.6347  -6.6948  -5.3726  -4.0418  -3.1967   2.6802
     4.1066   5.0477   7.8641

     occupation numbers 
     1.0000   1.0000   1.0000   1.0000   1.0000   1.0000   1.0000   1.0000
     1.0000   1.0000   1.0000   1.0000   1.0000   1.0000   1.0000   0.0000
     0.0000   0.0000   0.0000

     the Fermi energy is    -0.3466 ev

!    total energy              =    -185.30643026 Ry
     Harris-Foulkes estimate   =    -185.30643012 Ry
     estimated scf accuracy    <          4.1E-10 Ry

     total all-electron energy =      -697.278545 Ry

     The total energy is the sum of the following terms:

     one-electron contribution =   -1497.28908031 Ry
     hartree contribution      =     756.64737341 Ry
     xc contribution           =     -35.95368647 Ry
     ewald contribution        =     636.01910727 Ry
     one-center paw contrib.   =     -44.73032542 Ry
      -> PAW hartree energy AE =     185.41314954 Ry
      -> PAW hartree energy PS =    -185.32980104 Ry
      -> PAW xc energy AE      =     -87.78290295 Ry
      -> PAW xc energy PS      =      42.96922903 Ry
      -> total E_H with PAW    =     756.73072192 Ry
      -> total E_XC with PAW   =     -80.76736039 Ry
     smearing contrib. (-TS)   =       0.00018125 Ry

     convergence has been achieved in  13 iterations

     negative rho (up, down):  2.091E-07 0.000E+00

     Forces acting on atoms (cartesian axes, Ry/au):

     atom    1 type  1   force =     0.00000492    0.00000260    0.02574781
     atom    2 type  1   force =     0.00000648    0.00000338   -0.03058557
     atom    3 type  1   force =    -0.00000457   -0.00000243   -0.02598858
     atom    4 type  1   force =    -0.00000733   -0.00000383    0.03061738
     atom    5 type  2   force =    -0.00001297   -0.00000731   -0.06185533
     atom    6 type  2   force =     0.00001348    0.00000759    0.06206429
     The non-local contrib.  to forces
     atom    1 type  1   force =    -0.00000923   -0.00000673   -0.42504143
     atom    2 type  1   force =     0.00001295    0.00000658    0.07277991
     atom    3 type  1   force =     0.00000772    0.00000584    0.42490329
     atom    4 type  1   force =    -0.00001506   -0.00000775   -0.07288172
     atom    5 type  2   force =     0.00007251    0.00004821    2.61697944
     atom    6 type  2   force =    -0.00005114   -0.00003613   -2.61703869
     The ionic contribution  to forces
     atom    1 type  1   force =     0.00006601    0.00004732  -13.36767802
     atom    2 type  1   force =    -0.00000457    0.00000014   -9.40120984
     atom    3 type  1   force =    -0.00002607   -0.00002490   13.36783775
     atom    4 type  1   force =    -0.00000452   -0.00000517    9.40118888
     atom    5 type  2   force =    -0.00005247   -0.00003943  -66.85280486
     atom    6 type  2   force =     0.00002161    0.00002204   66.85266609
     The local contribution  to forces
     atom    1 type  1   force =    -0.00005070   -0.00003735   13.80841857
     atom    2 type  1   force =    -0.00000145   -0.00000294    9.29903262
     atom    3 type  1   force =     0.00001247    0.00001599  -13.80845887
     atom    4 type  1   force =     0.00001141    0.00000852   -9.29891213
     atom    5 type  2   force =    -0.00003230   -0.00001573   64.18179145
     atom    6 type  2   force =     0.00004275    0.00002165  -64.18171591
     The core correction contribution to forces
     atom    1 type  1   force =    -0.00000095   -0.00000055    0.00990135
     atom    2 type  1   force =    -0.00000023   -0.00000014   -0.00133323
     atom    3 type  1   force =     0.00000152    0.00000089   -0.01045264
     atom    4 type  1   force =     0.00000108    0.00000064    0.00103859
     atom    5 type  2   force =    -0.00000032   -0.00000021   -0.00795984
     atom    6 type  2   force =     0.00000027    0.00000018    0.00795709
     The Hubbard contrib.    to forces
     atom    1 type  1   force =     0.00000000    0.00000000    0.00000000
     atom    2 type  1   force =     0.00000000    0.00000000    0.00000000
     atom    3 type  1   force =     0.00000000    0.00000000    0.00000000
     atom    4 type  1   force =     0.00000000    0.00000000    0.00000000
     atom    5 type  2   force =     0.00000000    0.00000000    0.00000000
     atom    6 type  2   force =     0.00000000    0.00000000    0.00000000
     The SCF correction term to forces
     atom    1 type  1   force =     0.00000001    0.00000004   -0.00001852
     atom    2 type  1   force =     0.00000002   -0.00000013   -0.00002089
     atom    3 type  1   force =     0.00000003   -0.00000011    0.00001603
     atom    4 type  1   force =     0.00000000    0.00000006    0.00001789
     atom    5 type  2   force =    -0.00000016   -0.00000002   -0.00002739
     atom    6 type  2   force =     0.00000023   -0.00000002    0.00002984

     Total force =     0.104352     Total SCF correction =     0.000055


     Computing stress (Cartesian axis) and pressure


     negative rho (up, down):  2.091E-07 0.000E+00
          total   stress  (Ry/bohr**3)                   (kbar)     P=-1690.29
  -0.01193115   0.00000000  -0.00000085      -1755.13      0.00     -0.13
   0.00000000  -0.01193115  -0.00000050          0.00  -1755.13     -0.07
  -0.00000085  -0.00000050  -0.01060887         -0.13     -0.07  -1560.62

     kinetic stress (kbar)   9142.03      0.00     -0.10
                                0.00   9142.03     -0.06
                               -0.10     -0.06   8282.91

     local   stress (kbar)-286409.29      0.01     -0.03
                                0.01-286409.31     -0.02
                               -0.03     -0.02 276474.84

     nonloc. stress (kbar)   1458.03     -0.00     -0.05
                               -0.00   1458.04     -0.03
                               -0.05     -0.03   1413.87

     hartree stress (kbar) 140876.02     -0.00      0.02
                               -0.00 140876.02      0.01
                                0.02      0.01-137055.86

     exc-cor stress (kbar)  -1077.18     -0.00      0.00
                               -0.00  -1077.18      0.00
                                0.00      0.00  -1071.54

     corecor stress (kbar)   -910.10      0.00      0.00
                                0.00   -910.10      0.00
                                0.00      0.00   -902.15

     ewald   stress (kbar) 135165.36     -0.01      0.03
                               -0.01 135165.37      0.02
                                0.03      0.02-148702.69

     hubbard stress (kbar)      0.00      0.00      0.00
                                0.00      0.00      0.00
                                0.00      0.00      0.00

     london  stress (kbar)      0.00      0.00      0.00
                                0.00      0.00      0.00
                                0.00      0.00      0.00

     DFT-D3  stress (kbar)      0.00      0.00      0.00
                                0.00      0.00      0.00
                                0.00      0.00      0.00

     XDM     stress (kbar)      0.00      0.00      0.00
                                0.00      0.00      0.00
                                0.00      0.00      0.00

     dft-nl  stress (kbar)      0.00      0.00      0.00
                                0.00      0.00      0.00
                                0.00      0.00      0.00

     TS-vdW  stress (kbar)      0.00      0.00      0.00
                                0.00      0.00      0.00
                                0.00      0.00      0.00

     3D-RISM stress (kbar)      0.00      0.00      0.00
                                0.00      0.00      0.00
                                0.00      0.00      0.00



     Writing output data file pwscf.save\

     init_run     :     10.16s CPU      5.32s WALL (       1 calls)
     electrons    :     39.03s CPU     29.00s WALL (       1 calls)
     forces       :      6.94s CPU      1.43s WALL (       1 calls)
     stress       :     16.34s CPU      3.37s WALL (       1 calls)

     Called by init_run:
     wfcinit      :      0.52s CPU      0.38s WALL (       1 calls)
     wfcinit:atom :      0.00s CPU      0.01s WALL (      20 calls)
     wfcinit:wfcr :      0.45s CPU      0.32s WALL (      20 calls)
     potinit      :      4.02s CPU      0.76s WALL (       1 calls)
     hinit0       :      5.47s CPU      4.03s WALL (       1 calls)

     Called by electrons:
     c_bands      :     26.00s CPU     19.47s WALL (      13 calls)
     sum_band     :      5.36s CPU      4.62s WALL (      13 calls)
     v_of_rho     :      2.34s CPU      1.16s WALL (      14 calls)
     v_h          :      0.08s CPU      0.08s WALL (      14 calls)
     v_xc         :      2.66s CPU      1.23s WALL (      16 calls)
     newd         :      1.78s CPU      1.58s WALL (      14 calls)
     PAW_pot      :      3.72s CPU      2.29s WALL (      14 calls)
     mix_rho      :      0.25s CPU      0.13s WALL (      13 calls)

     Called by c_bands:
     init_us_2    :      0.27s CPU      0.18s WALL (     580 calls)
     ccgdiagg     :     21.44s CPU     16.05s WALL (     260 calls)
     wfcrot       :      4.53s CPU      3.49s WALL (     260 calls)

     Called by sum_band:
     sum_band:bec :      0.22s CPU      0.19s WALL (     260 calls)
     addusdens    :      2.42s CPU      2.17s WALL (      13 calls)

     Called by *cgdiagg:
     h_psi        :     18.08s CPU     13.91s WALL (   13125 calls)
     s_psi        :      2.08s CPU      1.37s WALL (   25990 calls)
     cdiaghg      :      0.03s CPU      0.05s WALL (     260 calls)

     Called by h_psi:
     h_psi:pot    :     15.69s CPU     12.36s WALL (   13125 calls)
     h_psi:calbec :      1.45s CPU      0.88s WALL (   13125 calls)
     vloc_psi     :     13.39s CPU     10.82s WALL (   13125 calls)
     add_vuspsi   :      0.80s CPU      0.61s WALL (   13125 calls)
     hs_1psi      :     16.47s CPU     12.62s WALL (   12865 calls)
     s_1psi       :      3.45s CPU      2.59s WALL (   12865 calls)

     General routines
     calbec       :      2.25s CPU      1.37s WALL (   26350 calls)
     fft          :      0.30s CPU      0.18s WALL (     205 calls)
     ffts         :      0.00s CPU      0.00s WALL (      27 calls)
     fftw         :      4.80s CPU      3.37s WALL (   40750 calls)
     interpolate  :      0.02s CPU      0.03s WALL (      14 calls)

     Parallel routines

     PAW routines
     PAW_pot      :      3.72s CPU      2.29s WALL (      14 calls)

     PWSCF        :   1m13.88s CPU     41.39s WALL


   This run was terminated on:  15:38:20  19Nov2024            

=------------------------------------------------------------------------------=
   JOB DONE.
=------------------------------------------------------------------------------=
