
     Program PWSCF v.6.4.1 starts on 19Nov2024 at 15:39:50 

     This program is part of the open-source Quantum ESPRESSO suite
     for quantum simulation of materials; please cite
         "P. Giannozzi et al., J. Phys.:Condens. Matter 21 395502 (2009);
         "P. Giannozzi et al., J. Phys.:Condens. Matter 29 465901 (2017);
          URL http://www.quantum-espresso.org", 
     in publications or presentations arising from this work. More details at
     http://www.quantum-espresso.org/quote

     Parallel version (MPI & OpenMP), running on      12 processor cores
     Number of MPI processes:                 1
     Threads/MPI process:                    12

     MPI processes distributed on     1 nodes
     Waiting for input...
     Reading input from standard input

     Current dimensions of program PWSCF are:
     Max number of different atomic species (ntypx) = 10
     Max number of k-points (npk) =  40000
     Max angular momentum in pseudopotentials (lmaxx) =  3
               file C.pbesol-n-kjpaw_psl.1.0.0.UPF: wavefunction(s)  2S 2P renormalized
               file F.pbesol-n-kjpaw_psl.1.0.0.UPF: wavefunction(s)  2S 2P renormalized

     Subspace diagonalization in iterative solution of the eigenvalue problem:
     a serial algorithm will be used


     G-vector sticks info
     --------------------
     sticks:   dense  smooth     PW     G-vecs:    dense   smooth      PW
     Sum         583     199     73                88889    17225    3643



     bravais-lattice index     =            0
     lattice parameter (alat)  =       4.8507  a.u.
     unit-cell volume          =     769.2439 (a.u.)^3
     number of atoms/cell      =            6
     number of atomic types    =            2
     number of electrons       =        30.00
     number of Kohn-Sham states=           19
     kinetic-energy cutoff     =      30.0000  Ry
     charge density cutoff     =     360.0000  Ry
     convergence threshold     =      1.2E-09
     mixing beta               =       0.4000
     number of iterations used =            8  plain     mixing
     Exchange-correlation      = SLA PW PSX PSC ( 1  4 10  8 0 0)

     celldm(1)=   4.850737  celldm(2)=   0.000000  celldm(3)=   0.000000
     celldm(4)=   0.000000  celldm(5)=   0.000000  celldm(6)=   0.000000

     crystal axes: (cart. coord. in units of alat)
               a(1) = (   1.000000   0.000000   0.000000 )  
               a(2) = (   0.500000   0.866025   0.000000 )  
               a(3) = (   0.000640   0.000376   7.782340 )  

     reciprocal axes: (cart. coord. in units 2 pi/alat)
               b(1) = (  1.000000 -0.577350 -0.000054 )  
               b(2) = (  0.000000  1.154701 -0.000056 )  
               b(3) = (  0.000000  0.000000  0.128496 )  


     PseudoPot. # 1 for C  read from file:
     .\C.pbesol-n-kjpaw_psl.1.0.0.UPF
     MD5 check sum: f9b2fe17d1f478429498b05d17159f9e
     Pseudo is Projector augmented-wave + core cor, Zval =  4.0
     Generated using "atomic" code by A. Dal Corso v.6.3
     Shape of augmentation charge: PSQ
     Using radial grid of 1073 points,  4 beta functions with: 
                l(1) =   0
                l(2) =   0
                l(3) =   1
                l(4) =   1
     Q(r) pseudized with 0 coefficients 


     PseudoPot. # 2 for F  read from file:
     .\F.pbesol-n-kjpaw_psl.1.0.0.UPF
     MD5 check sum: d939582bcd23f1ece12cfc4fab8d9d36
     Pseudo is Projector augmented-wave + core cor, Zval =  7.0
     Generated using "atomic" code by A. Dal Corso v.6.3
     Shape of augmentation charge: PSQ
     Using radial grid of 1105 points,  4 beta functions with: 
                l(1) =   0
                l(2) =   0
                l(3) =   1
                l(4) =   1
     Q(r) pseudized with 0 coefficients 


     atomic species   valence    mass     pseudopotential
        C              4.00    12.01070     C ( 1.00)
        F              7.00    18.99840     F ( 1.00)

     No symmetry found


                                    s                        frac. trans.

      isym =  1     identity                                     

 cryst.   s( 1) = (     1          0          0      )
                  (     0          1          0      )
                  (     0          0          1      )

 cart.    s( 1) = (  1.0000000  0.0000000  0.0000000 )
                  (  0.0000000  1.0000000  0.0000000 )
                  (  0.0000000  0.0000000  1.0000000 )


   Cartesian axes

     site n.     atom                  positions (alat units)
         1           C   tau(   1) = (   0.0003519   0.0002070   3.9178512  )
         2           C   tau(   2) = (   0.5003526   0.2888824   4.1138039  )
         3           C   tau(   3) = (   1.0003491   0.5775541   4.9151223  )
         4           C   tau(   4) = (   0.5003488   0.2888789   4.7191654  )
         5           F   tau(   5) = (   0.0003452   0.0002019   3.3809522  )
         6           F   tau(   6) = (   1.0003518   0.5775569   5.4520245  )

   Crystallographic axes

     site n.     atom                  positions (cryst. coord.)
         1           C   tau(   1) = (  0.0000192  0.0000206  0.5034284  )
         2           C   tau(   2) = (  0.3333424  0.3333434  0.5286075  )
         3           C   tau(   3) = (  0.6666304  0.6666281  0.6315738  )
         4           C   tau(   4) = (  0.3333076  0.3333056  0.6063941  )
         5           F   tau(   5) = (  0.0000446  0.0000447  0.4344390  )
         6           F   tau(   6) = (  0.6666024  0.6666014  0.7005636  )

     number of k points=    20  Marzari-Vanderbilt smearing, width (Ry)=  0.0200
                       cart. coord. in units 2pi/alat
        k(    1) = (   0.0000000   0.0000000   0.0000000), wk =   0.0555556
        k(    2) = (   0.0000000   0.1924501  -0.0000093), wk =   0.1111111
        k(    3) = (   0.0000000   0.3849002  -0.0000186), wk =   0.1111111
        k(    4) = (   0.0000000  -0.5773503   0.0000279), wk =   0.0555556
        k(    5) = (   0.1666667  -0.0962251  -0.0000091), wk =   0.1111111
        k(    6) = (   0.1666667   0.0962250  -0.0000184), wk =   0.1111111
        k(    7) = (   0.1666667   0.2886751  -0.0000277), wk =   0.1111111
        k(    8) = (   0.1666667  -0.6735754   0.0000188), wk =   0.1111111
        k(    9) = (   0.1666667  -0.4811253   0.0000095), wk =   0.1111111
        k(   10) = (   0.1666667  -0.2886752   0.0000002), wk =   0.1111111
        k(   11) = (   0.3333333  -0.1924501  -0.0000181), wk =   0.1111111
        k(   12) = (   0.3333333  -0.0000000  -0.0000274), wk =   0.1111111
        k(   13) = (   0.3333333   0.1924501  -0.0000367), wk =   0.1111111
        k(   14) = (   0.3333333  -0.7698005   0.0000097), wk =   0.1111111
        k(   15) = (   0.3333333  -0.5773504   0.0000004), wk =   0.1111111
        k(   16) = (   0.3333333  -0.3849003  -0.0000088), wk =   0.1111111
        k(   17) = (  -0.5000000   0.2886752   0.0000272), wk =   0.0555556
        k(   18) = (  -0.5000000   0.4811253   0.0000179), wk =   0.1111111
        k(   19) = (  -0.5000000   0.6735754   0.0000086), wk =   0.1111111
        k(   20) = (  -0.5000000  -0.2886751   0.0000551), wk =   0.0555556

                       cryst. coord.
        k(    1) = (   0.0000000   0.0000000   0.0000000), wk =   0.0555556
        k(    2) = (   0.0000000   0.1666667   0.0000000), wk =   0.1111111
        k(    3) = (   0.0000000   0.3333333   0.0000000), wk =   0.1111111
        k(    4) = (   0.0000000  -0.5000000  -0.0000000), wk =   0.0555556
        k(    5) = (   0.1666667   0.0000000   0.0000000), wk =   0.1111111
        k(    6) = (   0.1666667   0.1666667   0.0000000), wk =   0.1111111
        k(    7) = (   0.1666667   0.3333333   0.0000000), wk =   0.1111111
        k(    8) = (   0.1666667  -0.5000000   0.0000000), wk =   0.1111111
        k(    9) = (   0.1666667  -0.3333333   0.0000000), wk =   0.1111111
        k(   10) = (   0.1666667  -0.1666667   0.0000000), wk =   0.1111111
        k(   11) = (   0.3333333   0.0000000   0.0000000), wk =   0.1111111
        k(   12) = (   0.3333333   0.1666667   0.0000000), wk =   0.1111111
        k(   13) = (   0.3333333   0.3333333   0.0000000), wk =   0.1111111
        k(   14) = (   0.3333333  -0.5000000   0.0000000), wk =   0.1111111
        k(   15) = (   0.3333333  -0.3333333   0.0000000), wk =   0.1111111
        k(   16) = (   0.3333333  -0.1666667   0.0000000), wk =   0.1111111
        k(   17) = (  -0.5000000   0.0000000  -0.0000000), wk =   0.0555556
        k(   18) = (  -0.5000000   0.1666667  -0.0000000), wk =   0.1111111
        k(   19) = (  -0.5000000   0.3333333  -0.0000000), wk =   0.1111111
        k(   20) = (  -0.5000000  -0.5000000  -0.0000000), wk =   0.0555556

     Dense  grid:    88889 G-vectors     FFT dimensions: (  30,  30, 240)

     Smooth grid:    17225 G-vectors     FFT dimensions: (  18,  18, 135)

     Dynamical RAM for                 wfc:       0.62 MB

     Dynamical RAM for     wfc (w. buffer):      12.99 MB

     Dynamical RAM for           str. fact:       2.71 MB

     Dynamical RAM for           local pot:       0.00 MB

     Dynamical RAM for          nlocal pot:       1.56 MB

     Dynamical RAM for                qrad:       0.67 MB

     Dynamical RAM for          rho,v,vnew:       9.01 MB

     Dynamical RAM for               rhoin:       3.00 MB

     Dynamical RAM for            rho*nmix:      21.70 MB

     Dynamical RAM for           G-vectors:       5.22 MB

     Dynamical RAM for          h,s,v(r/c):       0.02 MB

     Dynamical RAM for          <psi|beta>:       0.01 MB

     Dynamical RAM for      wfcinit/wfcrot:       1.58 MB

     Dynamical RAM for           addusdens:      63.75 MB

     Dynamical RAM for          addusforce:      80.71 MB

     Dynamical RAM for         addusstress:      67.82 MB

     Estimated static dynamical RAM per process >      69.19 MB

     Estimated max dynamical RAM per process >     149.89 MB

     Check: negative core charge=   -0.000005

     Initial potential from superposition of free atoms

     starting charge   29.99983, renormalised to   30.00000

     negative rho (up, down):  5.058E-04 0.000E+00
     Starting wfcs are   24 randomized atomic wfcs
     Checking if some PAW data can be deallocated... 

     total cpu time spent up to now is        7.7 secs

     Self-consistent Calculation

     iteration #  1     ecut=    30.00 Ry     beta= 0.40
     CG style diagonalization
     ethr =  1.00E-02,  avg # of iterations =  3.0

     negative rho (up, down):  4.166E-04 0.000E+00

     total cpu time spent up to now is       11.1 secs

     total energy              =    -189.79104116 Ry
     Harris-Foulkes estimate   =    -189.90364512 Ry
     estimated scf accuracy    <       0.30198618 Ry

     iteration #  2     ecut=    30.00 Ry     beta= 0.40
     CG style diagonalization
     ethr =  1.01E-03,  avg # of iterations =  3.1

     negative rho (up, down):  1.562E-03 0.000E+00

     total cpu time spent up to now is       14.0 secs

     total energy              =    -189.79638143 Ry
     Harris-Foulkes estimate   =    -189.82025521 Ry
     estimated scf accuracy    <       0.06442626 Ry

     iteration #  3     ecut=    30.00 Ry     beta= 0.40
     CG style diagonalization
     ethr =  2.15E-04,  avg # of iterations =  3.7

     negative rho (up, down):  1.523E-03 0.000E+00

     total cpu time spent up to now is       17.4 secs

     total energy              =    -189.80048018 Ry
     Harris-Foulkes estimate   =    -189.80398128 Ry
     estimated scf accuracy    <       0.00961166 Ry

     iteration #  4     ecut=    30.00 Ry     beta= 0.40
     CG style diagonalization
     ethr =  3.20E-05,  avg # of iterations =  3.8

     negative rho (up, down):  1.381E-03 0.000E+00

     total cpu time spent up to now is       20.9 secs

     total energy              =    -189.80163072 Ry
     Harris-Foulkes estimate   =    -189.80206076 Ry
     estimated scf accuracy    <       0.00147611 Ry

     iteration #  5     ecut=    30.00 Ry     beta= 0.40
     CG style diagonalization
     c_bands:  1 eigenvalues not converged
     ethr =  4.92E-06,  avg # of iterations =  3.8

     negative rho (up, down):  9.377E-04 0.000E+00

     total cpu time spent up to now is       24.3 secs

     total energy              =    -189.80186358 Ry
     Harris-Foulkes estimate   =    -189.80190945 Ry
     estimated scf accuracy    <       0.00014578 Ry

     iteration #  6     ecut=    30.00 Ry     beta= 0.40
     CG style diagonalization
     c_bands:  1 eigenvalues not converged
     c_bands:  1 eigenvalues not converged
     c_bands:  1 eigenvalues not converged
     ethr =  4.86E-07,  avg # of iterations =  3.7

     negative rho (up, down):  7.885E-04 0.000E+00

     total cpu time spent up to now is       27.7 secs

     total energy              =    -189.80188470 Ry
     Harris-Foulkes estimate   =    -189.80189074 Ry
     estimated scf accuracy    <       0.00002760 Ry

     iteration #  7     ecut=    30.00 Ry     beta= 0.40
     CG style diagonalization
     ethr =  9.20E-08,  avg # of iterations =  3.5

     negative rho (up, down):  6.371E-04 0.000E+00

     total cpu time spent up to now is       30.7 secs

     total energy              =    -189.80188944 Ry
     Harris-Foulkes estimate   =    -189.80188932 Ry
     estimated scf accuracy    <       0.00000195 Ry

     iteration #  8     ecut=    30.00 Ry     beta= 0.40
     CG style diagonalization
     ethr =  6.51E-09,  avg # of iterations =  3.5

     negative rho (up, down):  5.805E-04 0.000E+00

     total cpu time spent up to now is       33.7 secs

     total energy              =    -189.80189065 Ry
     Harris-Foulkes estimate   =    -189.80189007 Ry
     estimated scf accuracy    <       0.00000016 Ry

     iteration #  9     ecut=    30.00 Ry     beta= 0.40
     CG style diagonalization
     ethr =  5.49E-10,  avg # of iterations =  3.7

     negative rho (up, down):  5.585E-04 0.000E+00

     total cpu time spent up to now is       36.8 secs

     total energy              =    -189.80189088 Ry
     Harris-Foulkes estimate   =    -189.80189070 Ry
     estimated scf accuracy    <       0.00000004 Ry

     iteration # 10     ecut=    30.00 Ry     beta= 0.40
     CG style diagonalization
     ethr =  1.30E-10,  avg # of iterations =  3.2

     negative rho (up, down):  5.505E-04 0.000E+00

     total cpu time spent up to now is       39.6 secs

     total energy              =    -189.80189096 Ry
     Harris-Foulkes estimate   =    -189.80189088 Ry
     estimated scf accuracy    <          6.4E-09 Ry

     iteration # 11     ecut=    30.00 Ry     beta= 0.40
     CG style diagonalization
     ethr =  2.15E-11,  avg # of iterations =  3.8

     negative rho (up, down):  5.474E-04 0.000E+00

     total cpu time spent up to now is       42.9 secs

     total energy              =    -189.80189099 Ry
     Harris-Foulkes estimate   =    -189.80189096 Ry
     estimated scf accuracy    <          2.1E-09 Ry

     iteration # 12     ecut=    30.00 Ry     beta= 0.40
     CG style diagonalization
     ethr =  6.95E-12,  avg # of iterations =  3.3

     negative rho (up, down):  5.456E-04 0.000E+00

     total cpu time spent up to now is       45.8 secs

     End of self-consistent calculation

          k = 0.0000 0.0000 0.0000 (  2135 PWs)   bands (ev):

   -27.4241 -27.3795 -21.5269 -18.1054 -12.1766  -9.4525  -6.2437  -5.8364
    -5.8364  -5.5945  -5.5944  -3.2679  -3.2679  -1.9811  -1.9811   1.9637
     4.3007   4.6365   4.6368

     occupation numbers 
     1.0000   1.0000   1.0000   1.0000   1.0000   1.0000   1.0000   1.0000
     1.0000   1.0000   1.0000   1.0000   1.0000   1.0000   1.0000   0.0000
     0.0000   0.0000   0.0000

          k = 0.0000 0.1925-0.0000 (  2129 PWs)   bands (ev):

   -27.1932 -27.1582 -20.9427 -17.6095 -11.8296  -9.4031  -7.8280  -7.2279
    -6.5181  -6.2402  -5.9590  -4.4231  -3.8004  -3.6809  -2.6071   2.8066
     4.0350   5.7256   5.9849

     occupation numbers 
     1.0000   1.0000   1.0000   1.0000   1.0000   1.0000   1.0000   1.0000
     1.0000   1.0000   1.0000   1.0000   1.0000   1.0000   1.0000   0.0000
     0.0000   0.0000   0.0000

          k = 0.0000 0.3849-0.0000 (  2129 PWs)   bands (ev):

   -26.7003 -26.6856 -19.2132 -16.1591 -12.2393 -10.9079 -10.2138  -8.9357
    -7.6968  -7.4487  -6.7698  -5.9939  -5.0002  -4.3868  -3.4431   2.6540
     4.3758   5.4732   7.1931

     occupation numbers 
     1.0000   1.0000   1.0000   1.0000   1.0000   1.0000   1.0000   1.0000
     1.0000   1.0000   1.0000   1.0000   1.0000   1.0000   1.0000   0.0000
     0.0000   0.0000   0.0000

          k = 0.0000-0.5774 0.0000 (  2148 PWs)   bands (ev):

   -26.4354 -26.4331 -17.0385 -15.4568 -13.9633 -13.2440  -9.8530  -9.3540
    -8.2064  -7.8614  -7.1538  -6.8735  -5.2966  -4.6018  -3.7416   2.6972
     3.9217   4.9434   7.8426

     occupation numbers 
     1.0000   1.0000   1.0000   1.0000   1.0000   1.0000   1.0000   1.0000
     1.0000   1.0000   1.0000   1.0000   1.0000   1.0000   1.0000   0.0000
     0.0000   0.0000   0.0000

          k = 0.1667-0.0962-0.0000 (  2129 PWs)   bands (ev):

   -27.1932 -27.1582 -20.9427 -17.6095 -11.8296  -9.4031  -7.8280  -7.2279
    -6.5181  -6.2402  -5.9590  -4.4231  -3.8004  -3.6809  -2.6071   2.8066
     4.0350   5.7253   5.9849

     occupation numbers 
     1.0000   1.0000   1.0000   1.0000   1.0000   1.0000   1.0000   1.0000
     1.0000   1.0000   1.0000   1.0000   1.0000   1.0000   1.0000   0.0000
     0.0000   0.0000   0.0000

          k = 0.1667 0.0962-0.0000 (  2129 PWs)   bands (ev):

   -27.1932 -27.1582 -20.9427 -17.6095 -11.8296  -9.4031  -7.8280  -7.2279
    -6.5181  -6.2402  -5.9590  -4.4231  -3.8004  -3.6809  -2.6071   2.8065
     4.0350   5.7256   5.9849

     occupation numbers 
     1.0000   1.0000   1.0000   1.0000   1.0000   1.0000   1.0000   1.0000
     1.0000   1.0000   1.0000   1.0000   1.0000   1.0000   1.0000   0.0000
     0.0000   0.0000   0.0000

          k = 0.1667 0.2887-0.0000 (  2126 PWs)   bands (ev):

   -26.8289 -26.8093 -19.7825 -16.6312 -11.4081  -9.9034  -9.7688  -8.5470
    -8.2623  -7.6824  -6.5032  -5.5418  -4.6662  -4.2359  -4.0024   4.2325
     4.4511   6.4225   7.4529

     occupation numbers 
     1.0000   1.0000   1.0000   1.0000   1.0000   1.0000   1.0000   1.0000
     1.0000   1.0000   1.0000   1.0000   1.0000   1.0000   1.0000   0.0000
     0.0000   0.0000   0.0000

          k = 0.1667-0.6736 0.0000 (  2141 PWs)   bands (ev):

   -26.4420 -26.4372 -17.5719 -14.8457 -13.6727 -12.0582 -10.0201  -9.7383
    -9.1736  -8.3357  -7.7015  -6.4555  -5.5435  -4.6916  -4.5402   4.2949
     5.3320   6.8530   7.1715

     occupation numbers 
     1.0000   1.0000   1.0000   1.0000   1.0000   1.0000   1.0000   1.0000
     1.0000   1.0000   1.0000   1.0000   1.0000   1.0000   1.0000   0.0000
     0.0000   0.0000   0.0000

          k = 0.1667-0.4811 0.0000 (  2141 PWs)   bands (ev):

   -26.4420 -26.4372 -17.5719 -14.8457 -13.6727 -12.0582 -10.0201  -9.7382
    -9.1736  -8.3357  -7.7015  -6.4555  -5.5435  -4.6916  -4.5402   4.2950
     5.3320   6.8530   7.1715

     occupation numbers 
     1.0000   1.0000   1.0000   1.0000   1.0000   1.0000   1.0000   1.0000
     1.0000   1.0000   1.0000   1.0000   1.0000   1.0000   1.0000   0.0000
     0.0000   0.0000   0.0000

          k = 0.1667-0.2887 0.0000 (  2126 PWs)   bands (ev):

   -26.8289 -26.8093 -19.7825 -16.6312 -11.4081  -9.9034  -9.7688  -8.5470
    -8.2623  -7.6824  -6.5032  -5.5418  -4.6662  -4.2359  -4.0024   4.2325
     4.4511   6.4225   7.4531

     occupation numbers 
     1.0000   1.0000   1.0000   1.0000   1.0000   1.0000   1.0000   1.0000
     1.0000   1.0000   1.0000   1.0000   1.0000   1.0000   1.0000   0.0000
     0.0000   0.0000   0.0000

          k = 0.3333-0.1925-0.0000 (  2129 PWs)   bands (ev):

   -26.7003 -26.6856 -19.2132 -16.1591 -12.2393 -10.9079 -10.2138  -8.9356
    -7.6968  -7.4487  -6.7698  -5.9939  -5.0002  -4.3868  -3.4431   2.6540
     4.3758   5.4732   7.9917

     occupation numbers 
     1.0000   1.0000   1.0000   1.0000   1.0000   1.0000   1.0000   1.0000
     1.0000   1.0000   1.0000   1.0000   1.0000   1.0000   1.0000   0.0000
     0.0000   0.0000   0.0000

          k = 0.3333-0.0000-0.0000 (  2126 PWs)   bands (ev):

   -26.8289 -26.8093 -19.7825 -16.6312 -11.4081  -9.9034  -9.7688  -8.5470
    -8.2623  -7.6824  -6.5032  -5.5418  -4.6662  -4.2359  -4.0024   4.2325
     4.4511   6.4225   7.4532

     occupation numbers 
     1.0000   1.0000   1.0000   1.0000   1.0000   1.0000   1.0000   1.0000
     1.0000   1.0000   1.0000   1.0000   1.0000   1.0000   1.0000   0.0000
     0.0000   0.0000   0.0000

          k = 0.3333 0.1925-0.0000 (  2129 PWs)   bands (ev):

   -26.7003 -26.6856 -19.2132 -16.1591 -12.2393 -10.9079 -10.2138  -8.9357
    -7.6968  -7.4487  -6.7698  -5.9939  -5.0002  -4.3868  -3.4431   2.6540
     4.3757   5.4732   7.1930

     occupation numbers 
     1.0000   1.0000   1.0000   1.0000   1.0000   1.0000   1.0000   1.0000
     1.0000   1.0000   1.0000   1.0000   1.0000   1.0000   1.0000   0.0000
     0.0000   0.0000   0.0000

          k = 0.3333-0.7698 0.0000 (  2141 PWs)   bands (ev):

   -26.4420 -26.4372 -17.5719 -14.8457 -13.6727 -12.0582 -10.0201  -9.7383
    -9.1736  -8.3357  -7.7015  -6.4555  -5.5435  -4.6916  -4.5402   4.2949
     5.3320   6.8530   7.1716

     occupation numbers 
     1.0000   1.0000   1.0000   1.0000   1.0000   1.0000   1.0000   1.0000
     1.0000   1.0000   1.0000   1.0000   1.0000   1.0000   1.0000   0.0000
     0.0000   0.0000   0.0000

          k = 0.3333-0.5774 0.0000 (  2148 PWs)   bands (ev):

   -26.3130 -26.3128 -15.8835 -14.0150 -14.0150 -12.9001 -11.1192 -11.1191
    -8.6965  -8.6908  -8.6907  -5.9833  -5.9136  -5.9135  -4.7037   5.1345
     5.1346   8.3615   9.0575

     occupation numbers 
     1.0000   1.0000   1.0000   1.0000   1.0000   1.0000   1.0000   1.0000
     1.0000   1.0000   1.0000   1.0000   1.0000   1.0000   1.0000   0.0000
     0.0000   0.0000   0.0000

          k = 0.3333-0.3849-0.0000 (  2141 PWs)   bands (ev):

   -26.4420 -26.4372 -17.5719 -14.8457 -13.6727 -12.0582 -10.0201  -9.7382
    -9.1736  -8.3357  -7.7015  -6.4555  -5.5435  -4.6916  -4.5402   4.2950
     5.3320   6.8530   7.1717

     occupation numbers 
     1.0000   1.0000   1.0000   1.0000   1.0000   1.0000   1.0000   1.0000
     1.0000   1.0000   1.0000   1.0000   1.0000   1.0000   1.0000   0.0000
     0.0000   0.0000   0.0000

          k =-0.5000 0.2887 0.0000 (  2148 PWs)   bands (ev):

   -26.4354 -26.4331 -17.0385 -15.4568 -13.9633 -13.2440  -9.8530  -9.3540
    -8.2064  -7.8614  -7.1538  -6.8734  -5.2966  -4.6018  -3.7416   2.6972
     3.9216   4.9434   7.8407

     occupation numbers 
     1.0000   1.0000   1.0000   1.0000   1.0000   1.0000   1.0000   1.0000
     1.0000   1.0000   1.0000   1.0000   1.0000   1.0000   1.0000   0.0000
     0.0000   0.0000   0.0000

          k =-0.5000 0.4811 0.0000 (  2141 PWs)   bands (ev):

   -26.4420 -26.4372 -17.5719 -14.8457 -13.6727 -12.0582 -10.0201  -9.7383
    -9.1736  -8.3357  -7.7015  -6.4555  -5.5435  -4.6916  -4.5402   4.2949
     5.3320   6.8530   7.1715

     occupation numbers 
     1.0000   1.0000   1.0000   1.0000   1.0000   1.0000   1.0000   1.0000
     1.0000   1.0000   1.0000   1.0000   1.0000   1.0000   1.0000   0.0000
     0.0000   0.0000   0.0000

          k =-0.5000 0.6736 0.0000 (  2141 PWs)   bands (ev):

   -26.4420 -26.4372 -17.5719 -14.8457 -13.6727 -12.0582 -10.0201  -9.7383
    -9.1736  -8.3357  -7.7015  -6.4555  -5.5435  -4.6916  -4.5402   4.2949
     5.3320   6.8530   7.1717

     occupation numbers 
     1.0000   1.0000   1.0000   1.0000   1.0000   1.0000   1.0000   1.0000
     1.0000   1.0000   1.0000   1.0000   1.0000   1.0000   1.0000   0.0000
     0.0000   0.0000   0.0000

          k =-0.5000-0.2887 0.0001 (  2148 PWs)   bands (ev):

   -26.4354 -26.4331 -17.0385 -15.4568 -13.9632 -13.2440  -9.8530  -9.3540
    -8.2064  -7.8614  -7.1538  -6.8735  -5.2966  -4.6018  -3.7416   2.6971
     3.9216   4.9434   7.8410

     occupation numbers 
     1.0000   1.0000   1.0000   1.0000   1.0000   1.0000   1.0000   1.0000
     1.0000   1.0000   1.0000   1.0000   1.0000   1.0000   1.0000   0.0000
     0.0000   0.0000   0.0000

     the Fermi energy is     0.2092 ev

!    total energy              =    -189.80189101 Ry
     Harris-Foulkes estimate   =    -189.80189099 Ry
     estimated scf accuracy    <          1.5E-10 Ry

     total all-electron energy =      -701.774006 Ry

     The total energy is the sum of the following terms:

     one-electron contribution =   -1506.55307001 Ry
     hartree contribution      =     762.82768173 Ry
     xc contribution           =     -37.12334645 Ry
     ewald contribution        =     636.01910727 Ry
     one-center paw contrib.   =     -44.97226355 Ry
      -> PAW hartree energy AE =     124.24720087 Ry
      -> PAW hartree energy PS =    -124.16362940 Ry
      -> PAW xc energy AE      =     -81.06586645 Ry
      -> PAW xc energy PS      =      36.01003143 Ry
      -> total E_H with PAW    =     762.91125320 Ry
      -> total E_XC with PAW   =     -82.17918147 Ry
     smearing contrib. (-TS)   =      -0.00000000 Ry

     convergence has been achieved in  12 iterations

     negative rho (up, down):  5.456E-04 0.000E+00

     Forces acting on atoms (cartesian axes, Ry/au):

     atom    1 type  1   force =     0.00000417    0.00000187   -0.01758799
     atom    2 type  1   force =    -0.00000663   -0.00000433   -0.00212753
     atom    3 type  1   force =    -0.00000477   -0.00000221    0.01758117
     atom    4 type  1   force =     0.00000569    0.00000383    0.00206807
     atom    5 type  2   force =    -0.00000001    0.00000035    0.02640595
     atom    6 type  2   force =     0.00000155    0.00000048   -0.02633967
     The non-local contrib.  to forces
     atom    1 type  1   force =    -0.00000252   -0.00000295   -0.39766806
     atom    2 type  1   force =    -0.00000664   -0.00000474    0.08066374
     atom    3 type  1   force =     0.00000057    0.00000182    0.39766096
     atom    4 type  1   force =     0.00000415    0.00000337   -0.08068891
     atom    5 type  2   force =     0.00004608    0.00003344    3.16906352
     atom    6 type  2   force =    -0.00002085   -0.00001933   -3.16904525
     The ionic contribution  to forces
     atom    1 type  1   force =     0.00006601    0.00004732  -13.36767802
     atom    2 type  1   force =    -0.00000457    0.00000014   -9.40120984
     atom    3 type  1   force =    -0.00002607   -0.00002490   13.36783775
     atom    4 type  1   force =    -0.00000452   -0.00000517    9.40118888
     atom    5 type  2   force =    -0.00005247   -0.00003943  -66.85280486
     atom    6 type  2   force =     0.00002161    0.00002204   66.85266609
     The local contribution  to forces
     atom    1 type  1   force =    -0.00005892   -0.00004227   13.74129995
     atom    2 type  1   force =     0.00000462    0.00000029    9.31938635
     atom    3 type  1   force =     0.00002030    0.00002063  -13.74144527
     atom    4 type  1   force =     0.00000581    0.00000545   -9.31932276
     atom    5 type  2   force =     0.00000657    0.00000665   63.72007344
     atom    6 type  2   force =     0.00000072   -0.00000228  -63.71996590
     The core correction contribution to forces
     atom    1 type  1   force =    -0.00000029   -0.00000016    0.00641578
     atom    2 type  1   force =     0.00000007    0.00000004   -0.00101186
     atom    3 type  1   force =     0.00000049    0.00000028   -0.00651120
     atom    4 type  1   force =     0.00000035    0.00000020    0.00085322
     atom    5 type  2   force =    -0.00000009   -0.00000007   -0.00995581
     atom    6 type  2   force =     0.00000000    0.00000002    0.00995360
     The Hubbard contrib.    to forces
     atom    1 type  1   force =     0.00000000    0.00000000    0.00000000
     atom    2 type  1   force =     0.00000000    0.00000000    0.00000000
     atom    3 type  1   force =     0.00000000    0.00000000    0.00000000
     atom    4 type  1   force =     0.00000000    0.00000000    0.00000000
     atom    5 type  2   force =     0.00000000    0.00000000    0.00000000
     atom    6 type  2   force =     0.00000000    0.00000000    0.00000000
     The SCF correction term to forces
     atom    1 type  1   force =    -0.00000002   -0.00000002    0.00000093
     atom    2 type  1   force =    -0.00000002   -0.00000002    0.00000265
     atom    3 type  1   force =     0.00000003    0.00000001   -0.00000249
     atom    4 type  1   force =    -0.00000002    0.00000002   -0.00000379
     atom    5 type  2   force =    -0.00000001   -0.00000019   -0.00001177
     atom    6 type  2   force =     0.00000016    0.00000007    0.00001035

     Total force =     0.044925     Total SCF correction =     0.000017


     Computing stress (Cartesian axis) and pressure


     negative rho (up, down):  5.456E-04 0.000E+00
          total   stress  (Ry/bohr**3)                   (kbar)     P= -168.54
  -0.00119952  -0.00000001  -0.00000023       -176.45     -0.00     -0.03
  -0.00000001  -0.00119951  -0.00000013         -0.00   -176.45     -0.02
  -0.00000023  -0.00000013  -0.00103810         -0.03     -0.02   -152.71

     kinetic stress (kbar)   9169.37      0.00     -0.02
                                0.00   9169.37     -0.01
                               -0.02     -0.01   8326.10

     local   stress (kbar)-286818.15      0.01     -0.03
                                0.01-286818.17     -0.03
                               -0.03     -0.03 276348.29

     nonloc. stress (kbar)   3012.05     -0.00     -0.02
                               -0.00   3012.05     -0.01
                               -0.02     -0.01   2775.34

     hartree stress (kbar) 141361.28     -0.00      0.01
                               -0.00 141361.28      0.01
                                0.01      0.01-136844.50

     exc-cor stress (kbar)  -1128.43     -0.00      0.00
                               -0.00  -1128.43      0.00
                                0.00      0.00  -1124.89

     corecor stress (kbar)   -937.94     -0.00      0.00
                               -0.00   -937.94      0.00
                                0.00      0.00   -930.37

     ewald   stress (kbar) 135165.36     -0.01      0.03
                               -0.01 135165.37      0.02
                                0.03      0.02-148702.69

     hubbard stress (kbar)      0.00      0.00      0.00
                                0.00      0.00      0.00
                                0.00      0.00      0.00

     london  stress (kbar)      0.00      0.00      0.00
                                0.00      0.00      0.00
                                0.00      0.00      0.00

     DFT-D3  stress (kbar)      0.00      0.00      0.00
                                0.00      0.00      0.00
                                0.00      0.00      0.00

     XDM     stress (kbar)      0.00      0.00      0.00
                                0.00      0.00      0.00
                                0.00      0.00      0.00

     dft-nl  stress (kbar)      0.00      0.00      0.00
                                0.00      0.00      0.00
                                0.00      0.00      0.00

     TS-vdW  stress (kbar)      0.00      0.00      0.00
                                0.00      0.00      0.00
                                0.00      0.00      0.00

     3D-RISM stress (kbar)      0.00      0.00      0.00
                                0.00      0.00      0.00
                                0.00      0.00      0.00



     Writing output data file pwscf.save\

     init_run     :     10.20s CPU      5.49s WALL (       1 calls)
     electrons    :     52.55s CPU     38.07s WALL (       1 calls)
     forces       :      6.84s CPU      1.20s WALL (       1 calls)
     stress       :     17.25s CPU      3.07s WALL (       1 calls)

     Called by init_run:
     wfcinit      :      0.56s CPU      0.62s WALL (       1 calls)
     wfcinit:atom :      0.03s CPU      0.02s WALL (      20 calls)
     wfcinit:wfcr :      0.41s CPU      0.47s WALL (      20 calls)
     potinit      :      4.11s CPU      0.65s WALL (       1 calls)
     hinit0       :      5.39s CPU      4.06s WALL (       1 calls)

     Called by electrons:
     c_bands      :     40.55s CPU     29.21s WALL (      12 calls)
     sum_band     :      5.92s CPU      4.77s WALL (      12 calls)
     v_of_rho     :      1.59s CPU      0.98s WALL (      13 calls)
     v_h          :      0.14s CPU      0.06s WALL (      13 calls)
     v_xc         :      1.70s CPU      1.05s WALL (      15 calls)
     newd         :      1.61s CPU      1.20s WALL (      13 calls)
     PAW_pot      :      2.83s CPU      1.97s WALL (      13 calls)
     mix_rho      :      0.31s CPU      0.14s WALL (      12 calls)

     Called by c_bands:
     init_us_2    :      0.81s CPU      0.29s WALL (     540 calls)
     ccgdiagg     :     33.88s CPU     24.49s WALL (     240 calls)
     wfcrot       :      6.52s CPU      4.87s WALL (     240 calls)

     Called by sum_band:
     sum_band:bec :      0.12s CPU      0.16s WALL (     240 calls)
     addusdens    :      2.11s CPU      1.74s WALL (      12 calls)

     Called by *cgdiagg:
     h_psi        :     25.31s CPU     19.42s WALL (   12035 calls)
     s_psi        :      5.47s CPU      3.42s WALL (   23830 calls)
     cdiaghg      :      0.17s CPU      0.08s WALL (     240 calls)

     Called by h_psi:
     h_psi:pot    :     23.95s CPU     17.96s WALL (   12035 calls)
     h_psi:calbec :      3.98s CPU      2.30s WALL (   12035 calls)
     vloc_psi     :     15.81s CPU     13.74s WALL (   12035 calls)
     add_vuspsi   :      4.08s CPU      1.87s WALL (   12035 calls)
     hs_1psi      :     25.56s CPU     18.39s WALL (   11795 calls)
     s_1psi       :      5.00s CPU      3.89s WALL (   11795 calls)

     General routines
     calbec       :      5.69s CPU      3.57s WALL (   24170 calls)
     fft          :      0.12s CPU      0.19s WALL (     192 calls)
     ffts         :      0.02s CPU      0.01s WALL (      25 calls)
     fftw         :      8.84s CPU      7.09s WALL (   37470 calls)
     interpolate  :      0.02s CPU      0.04s WALL (      13 calls)

     Parallel routines

     PAW routines
     PAW_pot      :      2.83s CPU      1.97s WALL (      13 calls)

     PWSCF        :   1m28.25s CPU     50.15s WALL


   This run was terminated on:  15:40:40  19Nov2024            

=------------------------------------------------------------------------------=
   JOB DONE.
=------------------------------------------------------------------------------=
