
     Program PWSCF v.6.4.1 starts on 19Nov2024 at 15:38:20 

     This program is part of the open-source Quantum ESPRESSO suite
     for quantum simulation of materials; please cite
         "P. Giannozzi et al., J. Phys.:Condens. Matter 21 395502 (2009);
         "P. Giannozzi et al., J. Phys.:Condens. Matter 29 465901 (2017);
          URL http://www.quantum-espresso.org", 
     in publications or presentations arising from this work. More details at
     http://www.quantum-espresso.org/quote

     Parallel version (MPI & OpenMP), running on      12 processor cores
     Number of MPI processes:                 1
     Threads/MPI process:                    12

     MPI processes distributed on     1 nodes
     Waiting for input...
     Reading input from standard input

     Current dimensions of program PWSCF are:
     Max number of different atomic species (ntypx) = 10
     Max number of k-points (npk) =  40000
     Max angular momentum in pseudopotentials (lmaxx) =  3
               file C.pbesol-n-kjpaw_psl.1.0.0.UPF: wavefunction(s)  2S 2P renormalized
               file F.pbesol-n-kjpaw_psl.1.0.0.UPF: wavefunction(s)  2S 2P renormalized

     Subspace diagonalization in iterative solution of the eigenvalue problem:
     a serial algorithm will be used


     G-vector sticks info
     --------------------
     sticks:   dense  smooth     PW     G-vecs:    dense   smooth      PW
     Sum         583     121     55                88889     9155    2305



     bravais-lattice index     =            0
     lattice parameter (alat)  =       4.8507  a.u.
     unit-cell volume          =     769.2439 (a.u.)^3
     number of atoms/cell      =            6
     number of atomic types    =            2
     number of electrons       =        30.00
     number of Kohn-Sham states=           19
     kinetic-energy cutoff     =      20.0000  Ry
     charge density cutoff     =     360.0000  Ry
     convergence threshold     =      1.2E-09
     mixing beta               =       0.4000
     number of iterations used =            8  plain     mixing
     Exchange-correlation      = SLA PW PSX PSC ( 1  4 10  8 0 0)

     celldm(1)=   4.850737  celldm(2)=   0.000000  celldm(3)=   0.000000
     celldm(4)=   0.000000  celldm(5)=   0.000000  celldm(6)=   0.000000

     crystal axes: (cart. coord. in units of alat)
               a(1) = (   1.000000   0.000000   0.000000 )  
               a(2) = (   0.500000   0.866025   0.000000 )  
               a(3) = (   0.000640   0.000376   7.782340 )  

     reciprocal axes: (cart. coord. in units 2 pi/alat)
               b(1) = (  1.000000 -0.577350 -0.000054 )  
               b(2) = (  0.000000  1.154701 -0.000056 )  
               b(3) = (  0.000000  0.000000  0.128496 )  


     PseudoPot. # 1 for C  read from file:
     .\C.pbesol-n-kjpaw_psl.1.0.0.UPF
     MD5 check sum: f9b2fe17d1f478429498b05d17159f9e
     Pseudo is Projector augmented-wave + core cor, Zval =  4.0
     Generated using "atomic" code by A. Dal Corso v.6.3
     Shape of augmentation charge: PSQ
     Using radial grid of 1073 points,  4 beta functions with: 
                l(1) =   0
                l(2) =   0
                l(3) =   1
                l(4) =   1
     Q(r) pseudized with 0 coefficients 


     PseudoPot. # 2 for F  read from file:
     .\F.pbesol-n-kjpaw_psl.1.0.0.UPF
     MD5 check sum: d939582bcd23f1ece12cfc4fab8d9d36
     Pseudo is Projector augmented-wave + core cor, Zval =  7.0
     Generated using "atomic" code by A. Dal Corso v.6.3
     Shape of augmentation charge: PSQ
     Using radial grid of 1105 points,  4 beta functions with: 
                l(1) =   0
                l(2) =   0
                l(3) =   1
                l(4) =   1
     Q(r) pseudized with 0 coefficients 


     atomic species   valence    mass     pseudopotential
        C              4.00    12.01070     C ( 1.00)
        F              7.00    18.99840     F ( 1.00)

     No symmetry found


                                    s                        frac. trans.

      isym =  1     identity                                     

 cryst.   s( 1) = (     1          0          0      )
                  (     0          1          0      )
                  (     0          0          1      )

 cart.    s( 1) = (  1.0000000  0.0000000  0.0000000 )
                  (  0.0000000  1.0000000  0.0000000 )
                  (  0.0000000  0.0000000  1.0000000 )


   Cartesian axes

     site n.     atom                  positions (alat units)
         1           C   tau(   1) = (   0.0003519   0.0002070   3.9178512  )
         2           C   tau(   2) = (   0.5003526   0.2888824   4.1138039  )
         3           C   tau(   3) = (   1.0003491   0.5775541   4.9151223  )
         4           C   tau(   4) = (   0.5003488   0.2888789   4.7191654  )
         5           F   tau(   5) = (   0.0003452   0.0002019   3.3809522  )
         6           F   tau(   6) = (   1.0003518   0.5775569   5.4520245  )

   Crystallographic axes

     site n.     atom                  positions (cryst. coord.)
         1           C   tau(   1) = (  0.0000192  0.0000206  0.5034284  )
         2           C   tau(   2) = (  0.3333424  0.3333434  0.5286075  )
         3           C   tau(   3) = (  0.6666304  0.6666281  0.6315738  )
         4           C   tau(   4) = (  0.3333076  0.3333056  0.6063941  )
         5           F   tau(   5) = (  0.0000446  0.0000447  0.4344390  )
         6           F   tau(   6) = (  0.6666024  0.6666014  0.7005636  )

     number of k points=    20  Marzari-Vanderbilt smearing, width (Ry)=  0.0200
                       cart. coord. in units 2pi/alat
        k(    1) = (   0.0000000   0.0000000   0.0000000), wk =   0.0555556
        k(    2) = (   0.0000000   0.1924501  -0.0000093), wk =   0.1111111
        k(    3) = (   0.0000000   0.3849002  -0.0000186), wk =   0.1111111
        k(    4) = (   0.0000000  -0.5773503   0.0000279), wk =   0.0555556
        k(    5) = (   0.1666667  -0.0962251  -0.0000091), wk =   0.1111111
        k(    6) = (   0.1666667   0.0962250  -0.0000184), wk =   0.1111111
        k(    7) = (   0.1666667   0.2886751  -0.0000277), wk =   0.1111111
        k(    8) = (   0.1666667  -0.6735754   0.0000188), wk =   0.1111111
        k(    9) = (   0.1666667  -0.4811253   0.0000095), wk =   0.1111111
        k(   10) = (   0.1666667  -0.2886752   0.0000002), wk =   0.1111111
        k(   11) = (   0.3333333  -0.1924501  -0.0000181), wk =   0.1111111
        k(   12) = (   0.3333333  -0.0000000  -0.0000274), wk =   0.1111111
        k(   13) = (   0.3333333   0.1924501  -0.0000367), wk =   0.1111111
        k(   14) = (   0.3333333  -0.7698005   0.0000097), wk =   0.1111111
        k(   15) = (   0.3333333  -0.5773504   0.0000004), wk =   0.1111111
        k(   16) = (   0.3333333  -0.3849003  -0.0000088), wk =   0.1111111
        k(   17) = (  -0.5000000   0.2886752   0.0000272), wk =   0.0555556
        k(   18) = (  -0.5000000   0.4811253   0.0000179), wk =   0.1111111
        k(   19) = (  -0.5000000   0.6735754   0.0000086), wk =   0.1111111
        k(   20) = (  -0.5000000  -0.2886751   0.0000551), wk =   0.0555556

                       cryst. coord.
        k(    1) = (   0.0000000   0.0000000   0.0000000), wk =   0.0555556
        k(    2) = (   0.0000000   0.1666667   0.0000000), wk =   0.1111111
        k(    3) = (   0.0000000   0.3333333   0.0000000), wk =   0.1111111
        k(    4) = (   0.0000000  -0.5000000  -0.0000000), wk =   0.0555556
        k(    5) = (   0.1666667   0.0000000   0.0000000), wk =   0.1111111
        k(    6) = (   0.1666667   0.1666667   0.0000000), wk =   0.1111111
        k(    7) = (   0.1666667   0.3333333   0.0000000), wk =   0.1111111
        k(    8) = (   0.1666667  -0.5000000   0.0000000), wk =   0.1111111
        k(    9) = (   0.1666667  -0.3333333   0.0000000), wk =   0.1111111
        k(   10) = (   0.1666667  -0.1666667   0.0000000), wk =   0.1111111
        k(   11) = (   0.3333333   0.0000000   0.0000000), wk =   0.1111111
        k(   12) = (   0.3333333   0.1666667   0.0000000), wk =   0.1111111
        k(   13) = (   0.3333333   0.3333333   0.0000000), wk =   0.1111111
        k(   14) = (   0.3333333  -0.5000000   0.0000000), wk =   0.1111111
        k(   15) = (   0.3333333  -0.3333333   0.0000000), wk =   0.1111111
        k(   16) = (   0.3333333  -0.1666667   0.0000000), wk =   0.1111111
        k(   17) = (  -0.5000000   0.0000000  -0.0000000), wk =   0.0555556
        k(   18) = (  -0.5000000   0.1666667  -0.0000000), wk =   0.1111111
        k(   19) = (  -0.5000000   0.3333333  -0.0000000), wk =   0.1111111
        k(   20) = (  -0.5000000  -0.5000000  -0.0000000), wk =   0.0555556

     Dense  grid:    88889 G-vectors     FFT dimensions: (  30,  30, 240)

     Smooth grid:     9155 G-vectors     FFT dimensions: (  15,  15, 108)

     Dynamical RAM for                 wfc:       0.34 MB

     Dynamical RAM for     wfc (w. buffer):       7.07 MB

     Dynamical RAM for           str. fact:       2.71 MB

     Dynamical RAM for           local pot:       0.00 MB

     Dynamical RAM for          nlocal pot:       0.85 MB

     Dynamical RAM for                qrad:       0.67 MB

     Dynamical RAM for          rho,v,vnew:       9.01 MB

     Dynamical RAM for               rhoin:       3.00 MB

     Dynamical RAM for            rho*nmix:      21.70 MB

     Dynamical RAM for           G-vectors:       5.16 MB

     Dynamical RAM for          h,s,v(r/c):       0.02 MB

     Dynamical RAM for          <psi|beta>:       0.01 MB

     Dynamical RAM for      wfcinit/wfcrot:       0.86 MB

     Dynamical RAM for           addusdens:      63.75 MB

     Dynamical RAM for          addusforce:      80.71 MB

     Dynamical RAM for         addusstress:      67.82 MB

     Estimated static dynamical RAM per process >      62.49 MB

     Estimated max dynamical RAM per process >     143.20 MB

     Check: negative core charge=   -0.000005

     Initial potential from superposition of free atoms

     starting charge   29.99983, renormalised to   30.00000

     negative rho (up, down):  5.058E-04 0.000E+00
     Starting wfcs are   24 randomized atomic wfcs
     Checking if some PAW data can be deallocated... 

     total cpu time spent up to now is        7.8 secs

     Self-consistent Calculation

     iteration #  1     ecut=    20.00 Ry     beta= 0.40
     CG style diagonalization
     ethr =  1.00E-02,  avg # of iterations =  3.1

     negative rho (up, down):  1.852E-04 0.000E+00

     total cpu time spent up to now is       10.2 secs

     total energy              =    -188.36731209 Ry
     Harris-Foulkes estimate   =    -188.53667733 Ry
     estimated scf accuracy    <       0.44990529 Ry

     iteration #  2     ecut=    20.00 Ry     beta= 0.40
     CG style diagonalization
     ethr =  1.50E-03,  avg # of iterations =  3.2

     negative rho (up, down):  3.279E-04 0.000E+00

     total cpu time spent up to now is       12.5 secs

     total energy              =    -188.38429693 Ry
     Harris-Foulkes estimate   =    -188.41797979 Ry
     estimated scf accuracy    <       0.10654765 Ry

     iteration #  3     ecut=    20.00 Ry     beta= 0.40
     CG style diagonalization
     ethr =  3.55E-04,  avg # of iterations =  3.3

     negative rho (up, down):  2.462E-03 0.000E+00

     total cpu time spent up to now is       14.9 secs

     total energy              =    -188.38574790 Ry
     Harris-Foulkes estimate   =    -188.39360277 Ry
     estimated scf accuracy    <       0.02560734 Ry

     iteration #  4     ecut=    20.00 Ry     beta= 0.40
     CG style diagonalization
     ethr =  8.54E-05,  avg # of iterations =  3.5

     negative rho (up, down):  1.841E-03 0.000E+00

     total cpu time spent up to now is       17.6 secs

     total energy              =    -188.38745473 Ry
     Harris-Foulkes estimate   =    -188.38786886 Ry
     estimated scf accuracy    <       0.00147281 Ry

     iteration #  5     ecut=    20.00 Ry     beta= 0.40
     CG style diagonalization
     ethr =  4.91E-06,  avg # of iterations =  4.4

     negative rho (up, down):  8.696E-04 0.000E+00

     total cpu time spent up to now is       20.6 secs

     total energy              =    -188.38775395 Ry
     Harris-Foulkes estimate   =    -188.38780936 Ry
     estimated scf accuracy    <       0.00021484 Ry

     iteration #  6     ecut=    20.00 Ry     beta= 0.40
     CG style diagonalization
     ethr =  7.16E-07,  avg # of iterations =  3.4

     negative rho (up, down):  4.048E-04 0.000E+00

     total cpu time spent up to now is       23.2 secs

     total energy              =    -188.38779523 Ry
     Harris-Foulkes estimate   =    -188.38778742 Ry
     estimated scf accuracy    <       0.00001958 Ry

     iteration #  7     ecut=    20.00 Ry     beta= 0.40
     CG style diagonalization
     ethr =  6.53E-08,  avg # of iterations =  3.8

     negative rho (up, down):  1.783E-04 0.000E+00

     total cpu time spent up to now is       25.8 secs

     total energy              =    -188.38780949 Ry
     Harris-Foulkes estimate   =    -188.38780047 Ry
     estimated scf accuracy    <       0.00000247 Ry

     iteration #  8     ecut=    20.00 Ry     beta= 0.40
     CG style diagonalization
     ethr =  8.22E-09,  avg # of iterations =  3.6

     negative rho (up, down):  9.624E-05 0.000E+00

     total cpu time spent up to now is       28.2 secs

     total energy              =    -188.38781519 Ry
     Harris-Foulkes estimate   =    -188.38781036 Ry
     estimated scf accuracy    <       0.00000124 Ry

     iteration #  9     ecut=    20.00 Ry     beta= 0.40
     CG style diagonalization
     ethr =  4.12E-09,  avg # of iterations =  3.4

     negative rho (up, down):  6.968E-05 0.000E+00

     total cpu time spent up to now is       30.5 secs

     total energy              =    -188.38781788 Ry
     Harris-Foulkes estimate   =    -188.38781545 Ry
     estimated scf accuracy    <       0.00000026 Ry

     iteration # 10     ecut=    20.00 Ry     beta= 0.40
     CG style diagonalization
     ethr =  8.62E-10,  avg # of iterations =  3.2

     negative rho (up, down):  6.030E-05 0.000E+00

     total cpu time spent up to now is       32.6 secs

     total energy              =    -188.38781885 Ry
     Harris-Foulkes estimate   =    -188.38781791 Ry
     estimated scf accuracy    <       0.00000005 Ry

     iteration # 11     ecut=    20.00 Ry     beta= 0.40
     CG style diagonalization
     ethr =  1.62E-10,  avg # of iterations =  3.6

     negative rho (up, down):  5.665E-05 0.000E+00

     total cpu time spent up to now is       35.0 secs

     total energy              =    -188.38781924 Ry
     Harris-Foulkes estimate   =    -188.38781886 Ry
     estimated scf accuracy    <       0.00000001 Ry

     iteration # 12     ecut=    20.00 Ry     beta= 0.40
     CG style diagonalization
     ethr =  3.86E-11,  avg # of iterations =  3.3

     negative rho (up, down):  5.396E-05 0.000E+00

     total cpu time spent up to now is       37.3 secs

     End of self-consistent calculation

          k = 0.0000 0.0000 0.0000 (  1151 PWs)   bands (ev):

   -28.7766 -28.7536 -21.7917 -18.4636 -12.5009  -9.5951  -6.3878  -5.8251
    -5.8250  -5.6131  -5.6128  -3.1687  -3.1686  -2.0279  -2.0277   2.0632
     4.2780   5.0015   5.0015

     occupation numbers 
     1.0000   1.0000   1.0000   1.0000   1.0000   1.0000   1.0000   1.0000
     1.0000   1.0000   1.0000   1.0000   1.0000   1.0000   1.0000   0.0000
     0.0000   0.0000   0.0000

          k = 0.0000 0.1925-0.0000 (  1186 PWs)   bands (ev):

   -28.6030 -28.5810 -21.1951 -17.9537 -12.1543  -9.6264  -7.9594  -7.3850
    -6.6410  -6.3363  -6.1426  -4.6540  -3.9189  -3.8288  -2.6651   2.9332
     4.1035   5.8302   6.2672

     occupation numbers 
     1.0000   1.0000   1.0000   1.0000   1.0000   1.0000   1.0000   1.0000
     1.0000   1.0000   1.0000   1.0000   1.0000   1.0000   1.0000   0.0000
     0.0000   0.0000   0.0000

          k = 0.0000 0.3849-0.0000 (  1174 PWs)   bands (ev):

   -28.1822 -28.1698 -19.4212 -16.4493 -12.3960 -11.1596 -10.3495  -9.1618
    -7.7810  -7.5977  -6.9728  -6.0782  -5.0577  -4.6175  -3.5353   2.7042
     4.5455   5.4728   7.1976

     occupation numbers 
     1.0000   1.0000   1.0000   1.0000   1.0000   1.0000   1.0000   1.0000
     1.0000   1.0000   1.0000   1.0000   1.0000   1.0000   1.0000   0.0000
     0.0000   0.0000   0.0000

          k = 0.0000-0.5774 0.0000 (  1146 PWs)   bands (ev):

   -27.9495 -27.9454 -17.1867 -15.6481 -14.0316 -13.4877  -9.9818  -9.6815
    -8.2378  -7.9849  -7.2606  -6.8531  -5.1557  -4.7395  -3.8723   2.6958
     4.0146   4.9641   7.9160

     occupation numbers 
     1.0000   1.0000   1.0000   1.0000   1.0000   1.0000   1.0000   1.0000
     1.0000   1.0000   1.0000   1.0000   1.0000   1.0000   1.0000   0.0000
     0.0000   0.0000   0.0000

          k = 0.1667-0.0962-0.0000 (  1186 PWs)   bands (ev):

   -28.6030 -28.5810 -21.1951 -17.9537 -12.1543  -9.6264  -7.9594  -7.3850
    -6.6410  -6.3363  -6.1426  -4.6540  -3.9189  -3.8289  -2.6651   2.9332
     4.1035   5.8307   6.2670

     occupation numbers 
     1.0000   1.0000   1.0000   1.0000   1.0000   1.0000   1.0000   1.0000
     1.0000   1.0000   1.0000   1.0000   1.0000   1.0000   1.0000   0.0000
     0.0000   0.0000   0.0000

          k = 0.1667 0.0962-0.0000 (  1186 PWs)   bands (ev):

   -28.6030 -28.5810 -21.1951 -17.9537 -12.1543  -9.6266  -7.9592  -7.3850
    -6.6411  -6.3362  -6.1427  -4.6540  -3.9190  -3.8289  -2.6652   2.9332
     4.1034   5.8305   6.2669

     occupation numbers 
     1.0000   1.0000   1.0000   1.0000   1.0000   1.0000   1.0000   1.0000
     1.0000   1.0000   1.0000   1.0000   1.0000   1.0000   1.0000   0.0000
     0.0000   0.0000   0.0000

          k = 0.1667 0.2887-0.0000 (  1169 PWs)   bands (ev):

   -28.2813 -28.2766 -20.0050 -16.9385 -11.7052 -10.1038  -9.8415  -8.7043
    -8.3612  -7.7500  -6.5477  -5.7435  -4.7922  -4.3273  -4.1096   4.4199
     4.5458   6.5752   7.6437

     occupation numbers 
     1.0000   1.0000   1.0000   1.0000   1.0000   1.0000   1.0000   1.0000
     1.0000   1.0000   1.0000   1.0000   1.0000   1.0000   1.0000   0.0000
     0.0000   0.0000   0.0000

          k = 0.1667-0.6736 0.0000 (  1143 PWs)   bands (ev):

   -27.9492 -27.9442 -17.7418 -15.0952 -13.7744 -12.2371 -10.1028  -9.8826
    -9.3086  -8.4612  -7.7958  -6.4482  -5.5951  -4.7566  -4.5993   4.3872
     5.4743   7.0578   7.3017

     occupation numbers 
     1.0000   1.0000   1.0000   1.0000   1.0000   1.0000   1.0000   1.0000
     1.0000   1.0000   1.0000   1.0000   1.0000   1.0000   1.0000   0.0000
     0.0000   0.0000   0.0000

          k = 0.1667-0.4811 0.0000 (  1142 PWs)   bands (ev):

   -27.9489 -27.9435 -17.7417 -15.0951 -13.7732 -12.2369 -10.1022  -9.8825
    -9.3039  -8.4590  -7.7957  -6.4446  -5.5827  -4.7568  -4.5980   4.3875
     5.4757   7.0577   7.3018

     occupation numbers 
     1.0000   1.0000   1.0000   1.0000   1.0000   1.0000   1.0000   1.0000
     1.0000   1.0000   1.0000   1.0000   1.0000   1.0000   1.0000   0.0000
     0.0000   0.0000   0.0000

          k = 0.1667-0.2887 0.0000 (  1169 PWs)   bands (ev):

   -28.2813 -28.2767 -20.0050 -16.9385 -11.7053 -10.1038  -9.8415  -8.7042
    -8.3612  -7.7499  -6.5478  -5.7436  -4.7922  -4.3269  -4.1096   4.4199
     4.5458   6.5752   7.6437

     occupation numbers 
     1.0000   1.0000   1.0000   1.0000   1.0000   1.0000   1.0000   1.0000
     1.0000   1.0000   1.0000   1.0000   1.0000   1.0000   1.0000   0.0000
     0.0000   0.0000   0.0000

          k = 0.3333-0.1925-0.0000 (  1174 PWs)   bands (ev):

   -28.1822 -28.1698 -19.4212 -16.4493 -12.3960 -11.1596 -10.3495  -9.1618
    -7.7810  -7.5977  -6.9728  -6.0782  -5.0577  -4.6175  -3.5353   2.7042
     4.5455   5.4728   7.1976

     occupation numbers 
     1.0000   1.0000   1.0000   1.0000   1.0000   1.0000   1.0000   1.0000
     1.0000   1.0000   1.0000   1.0000   1.0000   1.0000   1.0000   0.0000
     0.0000   0.0000   0.0000

          k = 0.3333-0.0000-0.0000 (  1169 PWs)   bands (ev):

   -28.2813 -28.2766 -20.0050 -16.9385 -11.7052 -10.1038  -9.8415  -8.7043
    -8.3612  -7.7500  -6.5477  -5.7435  -4.7922  -4.3273  -4.1096   4.4199
     4.5458   6.5752   7.6438

     occupation numbers 
     1.0000   1.0000   1.0000   1.0000   1.0000   1.0000   1.0000   1.0000
     1.0000   1.0000   1.0000   1.0000   1.0000   1.0000   1.0000   0.0000
     0.0000   0.0000   0.0000

          k = 0.3333 0.1925-0.0000 (  1174 PWs)   bands (ev):

   -28.1822 -28.1698 -19.4212 -16.4493 -12.3960 -11.1596 -10.3494  -9.1618
    -7.7811  -7.5977  -6.9729  -6.0781  -5.0576  -4.6176  -3.5353   2.7042
     4.5454   5.4729   7.1975

     occupation numbers 
     1.0000   1.0000   1.0000   1.0000   1.0000   1.0000   1.0000   1.0000
     1.0000   1.0000   1.0000   1.0000   1.0000   1.0000   1.0000   0.0000
     0.0000   0.0000   0.0000

          k = 0.3333-0.7698 0.0000 (  1142 PWs)   bands (ev):

   -27.9485 -27.9439 -17.7411 -15.0943 -13.7743 -12.2371 -10.1024  -9.8802
    -9.3066  -8.4603  -7.7931  -6.4412  -5.5885  -4.7560  -4.5971   4.3872
     5.4788   7.0602   7.3023

     occupation numbers 
     1.0000   1.0000   1.0000   1.0000   1.0000   1.0000   1.0000   1.0000
     1.0000   1.0000   1.0000   1.0000   1.0000   1.0000   1.0000   0.0000
     0.0000   0.0000   0.0000

          k = 0.3333-0.5774 0.0000 (  1144 PWs)   bands (ev):

   -27.8426 -27.8409 -16.0051 -14.2395 -14.2393 -12.9708 -11.2344 -11.2322
    -8.9242  -8.9219  -8.7495  -6.0944  -5.9750  -5.9613  -4.6323   5.2490
     5.2519   8.5482   9.3847

     occupation numbers 
     1.0000   1.0000   1.0000   1.0000   1.0000   1.0000   1.0000   1.0000
     1.0000   1.0000   1.0000   1.0000   1.0000   1.0000   1.0000   0.0000
     0.0000   0.0000   0.0000

          k = 0.3333-0.3849-0.0000 (  1142 PWs)   bands (ev):

   -27.9489 -27.9435 -17.7417 -15.0951 -13.7732 -12.2369 -10.1022  -9.8825
    -9.3039  -8.4590  -7.7957  -6.4446  -5.5827  -4.7568  -4.5980   4.3875
     5.4757   7.0577   7.3018

     occupation numbers 
     1.0000   1.0000   1.0000   1.0000   1.0000   1.0000   1.0000   1.0000
     1.0000   1.0000   1.0000   1.0000   1.0000   1.0000   1.0000   0.0000
     0.0000   0.0000   0.0000

          k =-0.5000 0.2887 0.0000 (  1146 PWs)   bands (ev):

   -27.9495 -27.9454 -17.1867 -15.6481 -14.0316 -13.4877  -9.9818  -9.6815
    -8.2378  -7.9849  -7.2606  -6.8531  -5.1557  -4.7395  -3.8723   2.6958
     4.0146   4.9641   7.9162

     occupation numbers 
     1.0000   1.0000   1.0000   1.0000   1.0000   1.0000   1.0000   1.0000
     1.0000   1.0000   1.0000   1.0000   1.0000   1.0000   1.0000   0.0000
     0.0000   0.0000   0.0000

          k =-0.5000 0.4811 0.0000 (  1143 PWs)   bands (ev):

   -27.9492 -27.9442 -17.7418 -15.0952 -13.7744 -12.2371 -10.1028  -9.8826
    -9.3086  -8.4612  -7.7958  -6.4482  -5.5951  -4.7566  -4.5992   4.3872
     5.4743   7.0577   7.3017

     occupation numbers 
     1.0000   1.0000   1.0000   1.0000   1.0000   1.0000   1.0000   1.0000
     1.0000   1.0000   1.0000   1.0000   1.0000   1.0000   1.0000   0.0000
     0.0000   0.0000   0.0000

          k =-0.5000 0.6736 0.0000 (  1142 PWs)   bands (ev):

   -27.9485 -27.9439 -17.7411 -15.0943 -13.7743 -12.2371 -10.1024  -9.8802
    -9.3066  -8.4603  -7.7931  -6.4412  -5.5885  -4.7560  -4.5971   4.3872
     5.4788   7.0602   7.3024

     occupation numbers 
     1.0000   1.0000   1.0000   1.0000   1.0000   1.0000   1.0000   1.0000
     1.0000   1.0000   1.0000   1.0000   1.0000   1.0000   1.0000   0.0000
     0.0000   0.0000   0.0000

          k =-0.5000-0.2887 0.0001 (  1146 PWs)   bands (ev):

   -27.9495 -27.9454 -17.1867 -15.6482 -14.0315 -13.4876  -9.9817  -9.6816
    -8.2379  -7.9847  -7.2607  -6.8530  -5.1558  -4.7396  -3.8723   2.6957
     4.0145   4.9641   7.9163

     occupation numbers 
     1.0000   1.0000   1.0000   1.0000   1.0000   1.0000   1.0000   1.0000
     1.0000   1.0000   1.0000   1.0000   1.0000   1.0000   1.0000   0.0000
     0.0000   0.0000   0.0000

     the Fermi energy is     0.1165 ev

!    total energy              =    -188.38781947 Ry
     Harris-Foulkes estimate   =    -188.38781924 Ry
     estimated scf accuracy    <          2.5E-10 Ry

     total all-electron energy =      -700.359934 Ry

     The total energy is the sum of the following terms:

     one-electron contribution =   -1503.45792553 Ry
     hartree contribution      =     760.63721646 Ry
     xc contribution           =     -36.72278571 Ry
     ewald contribution        =     636.01910727 Ry
     one-center paw contrib.   =     -44.86343195 Ry
      -> PAW hartree energy AE =     154.42137310 Ry
      -> PAW hartree energy PS =    -154.33261270 Ry
      -> PAW xc energy AE      =     -84.33262130 Ry
      -> PAW xc energy PS      =      39.38042895 Ry
      -> total E_H with PAW    =     760.72597686 Ry
      -> total E_XC with PAW   =     -81.67497806 Ry
     smearing contrib. (-TS)   =       0.00000000 Ry

     convergence has been achieved in  12 iterations

     negative rho (up, down):  5.396E-05 0.000E+00

     Forces acting on atoms (cartesian axes, Ry/au):

     atom    1 type  1   force =     0.00020873    0.00012012    0.06659907
     atom    2 type  1   force =    -0.00023495   -0.00013605    0.00726770
     atom    3 type  1   force =    -0.00020797   -0.00011972   -0.06672858
     atom    4 type  1   force =     0.00023372    0.00013537   -0.00727068
     atom    5 type  2   force =    -0.00009261   -0.00005340   -0.08073270
     atom    6 type  2   force =     0.00009308    0.00005368    0.08086519
     The non-local contrib.  to forces
     atom    1 type  1   force =    -0.00003140   -0.00001957   -0.38261962
     atom    2 type  1   force =    -0.00002056   -0.00001262    0.07544671
     atom    3 type  1   force =     0.00002965    0.00001859    0.38251038
     atom    4 type  1   force =     0.00001833    0.00001135   -0.07551181
     atom    5 type  2   force =    -0.00010193   -0.00005242    2.94301058
     atom    6 type  2   force =     0.00012499    0.00006542   -2.94302329
     The ionic contribution  to forces
     atom    1 type  1   force =     0.00006601    0.00004732  -13.36767802
     atom    2 type  1   force =    -0.00000457    0.00000014   -9.40120984
     atom    3 type  1   force =    -0.00002607   -0.00002490   13.36783775
     atom    4 type  1   force =    -0.00000452   -0.00000517    9.40118888
     atom    5 type  2   force =    -0.00005247   -0.00003943  -66.85280486
     atom    6 type  2   force =     0.00002161    0.00002204   66.85266609
     The local contribution  to forces
     atom    1 type  1   force =     0.00016359    0.00008635   13.80964292
     atom    2 type  1   force =    -0.00020279   -0.00011957    9.33346910
     atom    3 type  1   force =    -0.00020127   -0.00010747  -13.80969707
     atom    4 type  1   force =     0.00021265    0.00012508   -9.33336593
     atom    5 type  2   force =     0.00006213    0.00003871   63.83784699
     atom    6 type  2   force =    -0.00005322   -0.00003370  -63.83775117
     The core correction contribution to forces
     atom    1 type  1   force =     0.00001061    0.00000613    0.00714881
     atom    2 type  1   force =    -0.00000689   -0.00000399   -0.00053443
     atom    3 type  1   force =    -0.00001014   -0.00000585   -0.00744994
     atom    4 type  1   force =     0.00000736    0.00000427    0.00034038
     atom    5 type  2   force =     0.00000000   -0.00000002   -0.00891281
     atom    6 type  2   force =    -0.00000011   -0.00000004    0.00891432
     The Hubbard contrib.    to forces
     atom    1 type  1   force =     0.00000000    0.00000000    0.00000000
     atom    2 type  1   force =     0.00000000    0.00000000    0.00000000
     atom    3 type  1   force =     0.00000000    0.00000000    0.00000000
     atom    4 type  1   force =     0.00000000    0.00000000    0.00000000
     atom    5 type  2   force =     0.00000000    0.00000000    0.00000000
     atom    6 type  2   force =     0.00000000    0.00000000    0.00000000
     The SCF correction term to forces
     atom    1 type  1   force =     0.00000004   -0.00000005    0.00001125
     atom    2 type  1   force =    -0.00000001    0.00000007    0.00000243
     atom    3 type  1   force =    -0.00000003   -0.00000000   -0.00002343
     atom    4 type  1   force =     0.00000002   -0.00000008   -0.00001593
     atom    5 type  2   force =    -0.00000022   -0.00000017    0.00003367
     atom    6 type  2   force =    -0.00000007    0.00000003   -0.00003449

     Total force =     0.148496     Total SCF correction =     0.000057


     Computing stress (Cartesian axis) and pressure


     negative rho (up, down):  5.396E-05 0.000E+00
          total   stress  (Ry/bohr**3)                   (kbar)     P= -870.02
  -0.00624783  -0.00000189   0.00000293       -919.09     -0.28      0.43
  -0.00000189  -0.00624564   0.00000169         -0.28   -918.77      0.25
   0.00000293   0.00000169  -0.00524929          0.43      0.25   -772.20

     kinetic stress (kbar)   9220.79     -0.12      0.18
                               -0.12   9220.93      0.10
                                0.18      0.10   8378.92

     local   stress (kbar)-286737.56     -0.04      0.03
                               -0.04-286737.52      0.01
                                0.03      0.01 276359.34

     nonloc. stress (kbar)   2280.65     -0.15      0.22
                               -0.15   2280.82      0.13
                                0.22      0.13   2141.25

     hartree stress (kbar) 141190.64      0.04     -0.02
                                0.04 141190.60     -0.01
                               -0.02     -0.01-136922.07

     exc-cor stress (kbar)  -1110.60      0.00      0.00
                                0.00  -1110.60      0.00
                                0.00      0.00  -1106.55

     corecor stress (kbar)   -928.37      0.00     -0.00
                                0.00   -928.37     -0.00
                               -0.00     -0.00   -920.39

     ewald   stress (kbar) 135165.36     -0.01      0.03
                               -0.01 135165.37      0.02
                                0.03      0.02-148702.69

     hubbard stress (kbar)      0.00      0.00      0.00
                                0.00      0.00      0.00
                                0.00      0.00      0.00

     london  stress (kbar)      0.00      0.00      0.00
                                0.00      0.00      0.00
                                0.00      0.00      0.00

     DFT-D3  stress (kbar)      0.00      0.00      0.00
                                0.00      0.00      0.00
                                0.00      0.00      0.00

     XDM     stress (kbar)      0.00      0.00      0.00
                                0.00      0.00      0.00
                                0.00      0.00      0.00

     dft-nl  stress (kbar)      0.00      0.00      0.00
                                0.00      0.00      0.00
                                0.00      0.00      0.00

     TS-vdW  stress (kbar)      0.00      0.00      0.00
                                0.00      0.00      0.00
                                0.00      0.00      0.00

     3D-RISM stress (kbar)      0.00      0.00      0.00
                                0.00      0.00      0.00
                                0.00      0.00      0.00



     Writing output data file pwscf.save\

     init_run     :     10.89s CPU      5.56s WALL (       1 calls)
     electrons    :     45.50s CPU     29.57s WALL (       1 calls)
     forces       :      7.17s CPU      1.29s WALL (       1 calls)
     stress       :     16.91s CPU      3.44s WALL (       1 calls)

     Called by init_run:
     wfcinit      :      0.69s CPU      0.46s WALL (       1 calls)
     wfcinit:atom :      0.02s CPU      0.01s WALL (      20 calls)
     wfcinit:wfcr :      0.62s CPU      0.39s WALL (      20 calls)
     potinit      :      4.55s CPU      0.82s WALL (       1 calls)
     hinit0       :      5.53s CPU      4.11s WALL (       1 calls)

     Called by electrons:
     c_bands      :     31.59s CPU     20.92s WALL (      12 calls)
     sum_band     :      6.61s CPU      4.45s WALL (      12 calls)
     v_of_rho     :      2.17s CPU      1.01s WALL (      13 calls)
     v_h          :      0.12s CPU      0.10s WALL (      13 calls)
     v_xc         :      2.39s CPU      1.06s WALL (      15 calls)
     newd         :      1.75s CPU      1.27s WALL (      13 calls)
     PAW_pot      :      3.73s CPU      2.12s WALL (      13 calls)
     mix_rho      :      0.19s CPU      0.12s WALL (      12 calls)

     Called by c_bands:
     init_us_2    :      0.47s CPU      0.19s WALL (     540 calls)
     ccgdiagg     :     26.08s CPU     17.25s WALL (     240 calls)
     wfcrot       :      5.55s CPU      3.75s WALL (     240 calls)

     Called by sum_band:
     sum_band:bec :      0.19s CPU      0.17s WALL (     240 calls)
     addusdens    :      2.59s CPU      1.92s WALL (      12 calls)

     Called by *cgdiagg:
     h_psi        :     19.48s CPU     14.04s WALL (   11918 calls)
     s_psi        :      2.91s CPU      1.75s WALL (   23596 calls)
     cdiaghg      :      0.06s CPU      0.02s WALL (     240 calls)

     Called by h_psi:
     h_psi:pot    :     17.58s CPU     12.79s WALL (   11918 calls)
     h_psi:calbec :      1.69s CPU      1.09s WALL (   11918 calls)
     vloc_psi     :     14.00s CPU     10.83s WALL (   11918 calls)
     add_vuspsi   :      1.88s CPU      0.83s WALL (   11918 calls)
     hs_1psi      :     17.55s CPU     12.91s WALL (   11678 calls)
     s_1psi       :      6.09s CPU      3.08s WALL (   11678 calls)

     General routines
     calbec       :      3.42s CPU      1.97s WALL (   23936 calls)
     fft          :      0.19s CPU      0.19s WALL (     192 calls)
     ffts         :      0.00s CPU      0.01s WALL (      25 calls)
     fftw         :      6.78s CPU      4.80s WALL (   37236 calls)
     interpolate  :      0.02s CPU      0.01s WALL (      13 calls)

     Parallel routines

     PAW routines
     PAW_pot      :      3.73s CPU      2.12s WALL (      13 calls)

     PWSCF        :   1m21.69s CPU     42.17s WALL


   This run was terminated on:  15:39: 2  19Nov2024            

=------------------------------------------------------------------------------=
   JOB DONE.
=------------------------------------------------------------------------------=
