
     Program PWSCF v.6.4.1 starts on 19Nov2024 at 15:41:35 

     This program is part of the open-source Quantum ESPRESSO suite
     for quantum simulation of materials; please cite
         "P. Giannozzi et al., J. Phys.:Condens. Matter 21 395502 (2009);
         "P. Giannozzi et al., J. Phys.:Condens. Matter 29 465901 (2017);
          URL http://www.quantum-espresso.org", 
     in publications or presentations arising from this work. More details at
     http://www.quantum-espresso.org/quote

     Parallel version (MPI & OpenMP), running on      12 processor cores
     Number of MPI processes:                 1
     Threads/MPI process:                    12

     MPI processes distributed on     1 nodes
     Waiting for input...
     Reading input from standard input

     Current dimensions of program PWSCF are:
     Max number of different atomic species (ntypx) = 10
     Max number of k-points (npk) =  40000
     Max angular momentum in pseudopotentials (lmaxx) =  3
               file C.pbesol-n-kjpaw_psl.1.0.0.UPF: wavefunction(s)  2S 2P renormalized
               file F.pbesol-n-kjpaw_psl.1.0.0.UPF: wavefunction(s)  2S 2P renormalized

     Subspace diagonalization in iterative solution of the eigenvalue problem:
     a serial algorithm will be used


     G-vector sticks info
     --------------------
     sticks:   dense  smooth     PW     G-vecs:    dense   smooth      PW
     Sum         583     253     85                88889    26275    5261



     bravais-lattice index     =            0
     lattice parameter (alat)  =       4.8507  a.u.
     unit-cell volume          =     769.2439 (a.u.)^3
     number of atoms/cell      =            6
     number of atomic types    =            2
     number of electrons       =        30.00
     number of Kohn-Sham states=           19
     kinetic-energy cutoff     =      40.0000  Ry
     charge density cutoff     =     360.0000  Ry
     convergence threshold     =      1.2E-09
     mixing beta               =       0.4000
     number of iterations used =            8  plain     mixing
     Exchange-correlation      = SLA PW PSX PSC ( 1  4 10  8 0 0)

     celldm(1)=   4.850737  celldm(2)=   0.000000  celldm(3)=   0.000000
     celldm(4)=   0.000000  celldm(5)=   0.000000  celldm(6)=   0.000000

     crystal axes: (cart. coord. in units of alat)
               a(1) = (   1.000000   0.000000   0.000000 )  
               a(2) = (   0.500000   0.866025   0.000000 )  
               a(3) = (   0.000640   0.000376   7.782340 )  

     reciprocal axes: (cart. coord. in units 2 pi/alat)
               b(1) = (  1.000000 -0.577350 -0.000054 )  
               b(2) = (  0.000000  1.154701 -0.000056 )  
               b(3) = (  0.000000  0.000000  0.128496 )  


     PseudoPot. # 1 for C  read from file:
     .\C.pbesol-n-kjpaw_psl.1.0.0.UPF
     MD5 check sum: f9b2fe17d1f478429498b05d17159f9e
     Pseudo is Projector augmented-wave + core cor, Zval =  4.0
     Generated using "atomic" code by A. Dal Corso v.6.3
     Shape of augmentation charge: PSQ
     Using radial grid of 1073 points,  4 beta functions with: 
                l(1) =   0
                l(2) =   0
                l(3) =   1
                l(4) =   1
     Q(r) pseudized with 0 coefficients 


     PseudoPot. # 2 for F  read from file:
     .\F.pbesol-n-kjpaw_psl.1.0.0.UPF
     MD5 check sum: d939582bcd23f1ece12cfc4fab8d9d36
     Pseudo is Projector augmented-wave + core cor, Zval =  7.0
     Generated using "atomic" code by A. Dal Corso v.6.3
     Shape of augmentation charge: PSQ
     Using radial grid of 1105 points,  4 beta functions with: 
                l(1) =   0
                l(2) =   0
                l(3) =   1
                l(4) =   1
     Q(r) pseudized with 0 coefficients 


     atomic species   valence    mass     pseudopotential
        C              4.00    12.01070     C ( 1.00)
        F              7.00    18.99840     F ( 1.00)

     No symmetry found


                                    s                        frac. trans.

      isym =  1     identity                                     

 cryst.   s( 1) = (     1          0          0      )
                  (     0          1          0      )
                  (     0          0          1      )

 cart.    s( 1) = (  1.0000000  0.0000000  0.0000000 )
                  (  0.0000000  1.0000000  0.0000000 )
                  (  0.0000000  0.0000000  1.0000000 )


   Cartesian axes

     site n.     atom                  positions (alat units)
         1           C   tau(   1) = (   0.0003519   0.0002070   3.9178512  )
         2           C   tau(   2) = (   0.5003526   0.2888824   4.1138039  )
         3           C   tau(   3) = (   1.0003491   0.5775541   4.9151223  )
         4           C   tau(   4) = (   0.5003488   0.2888789   4.7191654  )
         5           F   tau(   5) = (   0.0003452   0.0002019   3.3809522  )
         6           F   tau(   6) = (   1.0003518   0.5775569   5.4520245  )

   Crystallographic axes

     site n.     atom                  positions (cryst. coord.)
         1           C   tau(   1) = (  0.0000192  0.0000206  0.5034284  )
         2           C   tau(   2) = (  0.3333424  0.3333434  0.5286075  )
         3           C   tau(   3) = (  0.6666304  0.6666281  0.6315738  )
         4           C   tau(   4) = (  0.3333076  0.3333056  0.6063941  )
         5           F   tau(   5) = (  0.0000446  0.0000447  0.4344390  )
         6           F   tau(   6) = (  0.6666024  0.6666014  0.7005636  )

     number of k points=    20  Marzari-Vanderbilt smearing, width (Ry)=  0.0200
                       cart. coord. in units 2pi/alat
        k(    1) = (   0.0000000   0.0000000   0.0000000), wk =   0.0555556
        k(    2) = (   0.0000000   0.1924501  -0.0000093), wk =   0.1111111
        k(    3) = (   0.0000000   0.3849002  -0.0000186), wk =   0.1111111
        k(    4) = (   0.0000000  -0.5773503   0.0000279), wk =   0.0555556
        k(    5) = (   0.1666667  -0.0962251  -0.0000091), wk =   0.1111111
        k(    6) = (   0.1666667   0.0962250  -0.0000184), wk =   0.1111111
        k(    7) = (   0.1666667   0.2886751  -0.0000277), wk =   0.1111111
        k(    8) = (   0.1666667  -0.6735754   0.0000188), wk =   0.1111111
        k(    9) = (   0.1666667  -0.4811253   0.0000095), wk =   0.1111111
        k(   10) = (   0.1666667  -0.2886752   0.0000002), wk =   0.1111111
        k(   11) = (   0.3333333  -0.1924501  -0.0000181), wk =   0.1111111
        k(   12) = (   0.3333333  -0.0000000  -0.0000274), wk =   0.1111111
        k(   13) = (   0.3333333   0.1924501  -0.0000367), wk =   0.1111111
        k(   14) = (   0.3333333  -0.7698005   0.0000097), wk =   0.1111111
        k(   15) = (   0.3333333  -0.5773504   0.0000004), wk =   0.1111111
        k(   16) = (   0.3333333  -0.3849003  -0.0000088), wk =   0.1111111
        k(   17) = (  -0.5000000   0.2886752   0.0000272), wk =   0.0555556
        k(   18) = (  -0.5000000   0.4811253   0.0000179), wk =   0.1111111
        k(   19) = (  -0.5000000   0.6735754   0.0000086), wk =   0.1111111
        k(   20) = (  -0.5000000  -0.2886751   0.0000551), wk =   0.0555556

                       cryst. coord.
        k(    1) = (   0.0000000   0.0000000   0.0000000), wk =   0.0555556
        k(    2) = (   0.0000000   0.1666667   0.0000000), wk =   0.1111111
        k(    3) = (   0.0000000   0.3333333   0.0000000), wk =   0.1111111
        k(    4) = (   0.0000000  -0.5000000  -0.0000000), wk =   0.0555556
        k(    5) = (   0.1666667   0.0000000   0.0000000), wk =   0.1111111
        k(    6) = (   0.1666667   0.1666667   0.0000000), wk =   0.1111111
        k(    7) = (   0.1666667   0.3333333   0.0000000), wk =   0.1111111
        k(    8) = (   0.1666667  -0.5000000   0.0000000), wk =   0.1111111
        k(    9) = (   0.1666667  -0.3333333   0.0000000), wk =   0.1111111
        k(   10) = (   0.1666667  -0.1666667   0.0000000), wk =   0.1111111
        k(   11) = (   0.3333333   0.0000000   0.0000000), wk =   0.1111111
        k(   12) = (   0.3333333   0.1666667   0.0000000), wk =   0.1111111
        k(   13) = (   0.3333333   0.3333333   0.0000000), wk =   0.1111111
        k(   14) = (   0.3333333  -0.5000000   0.0000000), wk =   0.1111111
        k(   15) = (   0.3333333  -0.3333333   0.0000000), wk =   0.1111111
        k(   16) = (   0.3333333  -0.1666667   0.0000000), wk =   0.1111111
        k(   17) = (  -0.5000000   0.0000000  -0.0000000), wk =   0.0555556
        k(   18) = (  -0.5000000   0.1666667  -0.0000000), wk =   0.1111111
        k(   19) = (  -0.5000000   0.3333333  -0.0000000), wk =   0.1111111
        k(   20) = (  -0.5000000  -0.5000000  -0.0000000), wk =   0.0555556

     Dense  grid:    88889 G-vectors     FFT dimensions: (  30,  30, 240)

     Smooth grid:    26275 G-vectors     FFT dimensions: (  20,  20, 160)

     Dynamical RAM for                 wfc:       0.95 MB

     Dynamical RAM for     wfc (w. buffer):      20.01 MB

     Dynamical RAM for           str. fact:       2.71 MB

     Dynamical RAM for           local pot:       0.00 MB

     Dynamical RAM for          nlocal pot:       2.41 MB

     Dynamical RAM for                qrad:       0.67 MB

     Dynamical RAM for          rho,v,vnew:       9.01 MB

     Dynamical RAM for               rhoin:       3.00 MB

     Dynamical RAM for            rho*nmix:      21.70 MB

     Dynamical RAM for           G-vectors:       5.29 MB

     Dynamical RAM for          h,s,v(r/c):       0.02 MB

     Dynamical RAM for          <psi|beta>:       0.01 MB

     Dynamical RAM for      wfcinit/wfcrot:       2.42 MB

     Dynamical RAM for           addusdens:      63.75 MB

     Dynamical RAM for          addusforce:      80.71 MB

     Dynamical RAM for         addusstress:      67.82 MB

     Estimated static dynamical RAM per process >      77.11 MB

     Estimated max dynamical RAM per process >     157.82 MB

     Check: negative core charge=   -0.000005

     Initial potential from superposition of free atoms

     starting charge   29.99983, renormalised to   30.00000

     negative rho (up, down):  5.058E-04 0.000E+00
     Starting wfcs are   24 randomized atomic wfcs
     Checking if some PAW data can be deallocated... 

     total cpu time spent up to now is        8.5 secs

     Self-consistent Calculation

     iteration #  1     ecut=    40.00 Ry     beta= 0.40
     CG style diagonalization
     ethr =  1.00E-02,  avg # of iterations =  3.1

     negative rho (up, down):  4.806E-04 0.000E+00

     total cpu time spent up to now is       13.0 secs

     total energy              =    -189.91511948 Ry
     Harris-Foulkes estimate   =    -190.04552659 Ry
     estimated scf accuracy    <       0.33511472 Ry

     iteration #  2     ecut=    40.00 Ry     beta= 0.40
     CG style diagonalization
     ethr =  1.12E-03,  avg # of iterations =  3.2

     negative rho (up, down):  6.167E-04 0.000E+00

     total cpu time spent up to now is       16.8 secs

     total energy              =    -189.93271034 Ry
     Harris-Foulkes estimate   =    -189.95529093 Ry
     estimated scf accuracy    <       0.06258142 Ry

     iteration #  3     ecut=    40.00 Ry     beta= 0.40
     CG style diagonalization
     ethr =  2.09E-04,  avg # of iterations =  3.5

     negative rho (up, down):  7.517E-04 0.000E+00

     total cpu time spent up to now is       21.0 secs

     total energy              =    -189.93498348 Ry
     Harris-Foulkes estimate   =    -189.93932556 Ry
     estimated scf accuracy    <       0.01194411 Ry

     iteration #  4     ecut=    40.00 Ry     beta= 0.40
     CG style diagonalization
     ethr =  3.98E-05,  avg # of iterations =  3.9

     negative rho (up, down):  7.506E-04 0.000E+00

     total cpu time spent up to now is       26.0 secs

     total energy              =    -189.93642541 Ry
     Harris-Foulkes estimate   =    -189.93676285 Ry
     estimated scf accuracy    <       0.00133314 Ry

     iteration #  5     ecut=    40.00 Ry     beta= 0.40
     CG style diagonalization
     c_bands:  1 eigenvalues not converged
     c_bands:  1 eigenvalues not converged
     c_bands:  1 eigenvalues not converged
     ethr =  4.44E-06,  avg # of iterations =  4.1

     negative rho (up, down):  6.813E-04 0.000E+00

     total cpu time spent up to now is       31.0 secs

     total energy              =    -189.93664540 Ry
     Harris-Foulkes estimate   =    -189.93669153 Ry
     estimated scf accuracy    <       0.00013843 Ry

     iteration #  6     ecut=    40.00 Ry     beta= 0.40
     CG style diagonalization
     c_bands:  1 eigenvalues not converged
     ethr =  4.61E-07,  avg # of iterations =  4.0

     negative rho (up, down):  6.649E-04 0.000E+00

     total cpu time spent up to now is       35.9 secs

     total energy              =    -189.93667202 Ry
     Harris-Foulkes estimate   =    -189.93667663 Ry
     estimated scf accuracy    <       0.00002497 Ry

     iteration #  7     ecut=    40.00 Ry     beta= 0.40
     CG style diagonalization
     c_bands:  1 eigenvalues not converged
     ethr =  8.32E-08,  avg # of iterations =  3.5

     negative rho (up, down):  6.462E-04 0.000E+00

     total cpu time spent up to now is       40.1 secs

     total energy              =    -189.93667548 Ry
     Harris-Foulkes estimate   =    -189.93667570 Ry
     estimated scf accuracy    <       0.00000074 Ry

     iteration #  8     ecut=    40.00 Ry     beta= 0.40
     CG style diagonalization
     ethr =  2.46E-09,  avg # of iterations =  4.2

     negative rho (up, down):  6.399E-04 0.000E+00

     total cpu time spent up to now is       45.3 secs

     total energy              =    -189.93667596 Ry
     Harris-Foulkes estimate   =    -189.93667599 Ry
     estimated scf accuracy    <       0.00000018 Ry

     iteration #  9     ecut=    40.00 Ry     beta= 0.40
     CG style diagonalization
     ethr =  5.85E-10,  avg # of iterations =  3.2

     negative rho (up, down):  6.378E-04 0.000E+00

     total cpu time spent up to now is       49.9 secs

     total energy              =    -189.93667599 Ry
     Harris-Foulkes estimate   =    -189.93667599 Ry
     estimated scf accuracy    <       0.00000003 Ry

     iteration # 10     ecut=    40.00 Ry     beta= 0.40
     CG style diagonalization
     ethr =  1.07E-10,  avg # of iterations =  3.2

     negative rho (up, down):  6.371E-04 0.000E+00

     total cpu time spent up to now is       54.9 secs

     total energy              =    -189.93667600 Ry
     Harris-Foulkes estimate   =    -189.93667600 Ry
     estimated scf accuracy    <          4.5E-09 Ry

     iteration # 11     ecut=    40.00 Ry     beta= 0.40
     CG style diagonalization
     ethr =  1.50E-11,  avg # of iterations =  3.9

     negative rho (up, down):  6.368E-04 0.000E+00

     total cpu time spent up to now is       60.1 secs

     total energy              =    -189.93667600 Ry
     Harris-Foulkes estimate   =    -189.93667600 Ry
     estimated scf accuracy    <          1.8E-09 Ry

     iteration # 12     ecut=    40.00 Ry     beta= 0.40
     CG style diagonalization
     ethr =  6.06E-12,  avg # of iterations =  3.8

     negative rho (up, down):  6.368E-04 0.000E+00

     total cpu time spent up to now is       64.6 secs

     End of self-consistent calculation

          k = 0.0000 0.0000 0.0000 (  3231 PWs)   bands (ev):

   -27.2921 -27.2443 -21.4666 -18.0419 -12.1226  -9.4014  -6.2263  -5.8079
    -5.8079  -5.5456  -5.5456  -3.2717  -3.2717  -2.0143  -2.0143   1.9612
     4.3200   4.6317   4.6319

     occupation numbers 
     1.0000   1.0000   1.0000   1.0000   1.0000   1.0000   1.0000   1.0000
     1.0000   1.0000   1.0000   1.0000   1.0000   1.0000   1.0000   0.0000
     0.0000   0.0000   0.0000

          k = 0.0000 0.1925-0.0000 (  3267 PWs)   bands (ev):

   -27.0571 -27.0203 -20.8840 -17.5475 -11.7715  -9.3437  -7.8131  -7.2039
    -6.4993  -6.2144  -5.9430  -4.3959  -3.7968  -3.6627  -2.6222   2.8081
     4.0486   5.7308   5.9757

     occupation numbers 
     1.0000   1.0000   1.0000   1.0000   1.0000   1.0000   1.0000   1.0000
     1.0000   1.0000   1.0000   1.0000   1.0000   1.0000   1.0000   0.0000
     0.0000   0.0000   0.0000

          k = 0.0000 0.3849-0.0000 (  3282 PWs)   bands (ev):

   -26.5550 -26.5398 -19.1593 -16.1028 -12.1998 -10.8596 -10.1828  -8.8823
    -7.6884  -7.4128  -6.7534  -5.9514  -4.9734  -4.3613  -3.4281   2.6762
     4.3773   5.5010   7.2005

     occupation numbers 
     1.0000   1.0000   1.0000   1.0000   1.0000   1.0000   1.0000   1.0000
     1.0000   1.0000   1.0000   1.0000   1.0000   1.0000   1.0000   0.0000
     0.0000   0.0000   0.0000

          k = 0.0000-0.5774 0.0000 (  3292 PWs)   bands (ev):

   -26.2844 -26.2817 -16.9898 -15.4049 -13.9237 -13.1945  -9.8138  -9.2905
    -8.1960  -7.8114  -7.1407  -6.8160  -5.2598  -4.5643  -3.7164   2.7238
     3.9422   4.9702   7.8530

     occupation numbers 
     1.0000   1.0000   1.0000   1.0000   1.0000   1.0000   1.0000   1.0000
     1.0000   1.0000   1.0000   1.0000   1.0000   1.0000   1.0000   0.0000
     0.0000   0.0000   0.0000

          k = 0.1667-0.0962-0.0000 (  3267 PWs)   bands (ev):

   -27.0571 -27.0203 -20.8840 -17.5475 -11.7715  -9.3437  -7.8131  -7.2039
    -6.4993  -6.2144  -5.9430  -4.3959  -3.7968  -3.6627  -2.6222   2.8081
     4.0486   5.7309   5.9757

     occupation numbers 
     1.0000   1.0000   1.0000   1.0000   1.0000   1.0000   1.0000   1.0000
     1.0000   1.0000   1.0000   1.0000   1.0000   1.0000   1.0000   0.0000
     0.0000   0.0000   0.0000

          k = 0.1667 0.0962-0.0000 (  3267 PWs)   bands (ev):

   -27.0571 -27.0203 -20.8840 -17.5475 -11.7715  -9.3437  -7.8131  -7.2039
    -6.4993  -6.2144  -5.9430  -4.3959  -3.7968  -3.6627  -2.6222   2.8080
     4.0486   5.7309   5.9757

     occupation numbers 
     1.0000   1.0000   1.0000   1.0000   1.0000   1.0000   1.0000   1.0000
     1.0000   1.0000   1.0000   1.0000   1.0000   1.0000   1.0000   0.0000
     0.0000   0.0000   0.0000

          k = 0.1667 0.2887-0.0000 (  3265 PWs)   bands (ev):

   -26.6864 -26.6655 -19.7271 -16.5731 -11.3501  -9.8619  -9.7421  -8.5154
    -8.2356  -7.6701  -6.4753  -5.5003  -4.6409  -4.2127  -3.9773   4.2271
     4.4619   6.4262   7.4516

     occupation numbers 
     1.0000   1.0000   1.0000   1.0000   1.0000   1.0000   1.0000   1.0000
     1.0000   1.0000   1.0000   1.0000   1.0000   1.0000   1.0000   0.0000
     0.0000   0.0000   0.0000

          k = 0.1667-0.6736 0.0000 (  3307 PWs)   bands (ev):

   -26.2919 -26.2864 -17.5212 -14.7925 -13.6312 -12.0131  -9.9921  -9.6949
    -9.1376  -8.2992  -7.6647  -6.4046  -5.5042  -4.6651  -4.5137   4.3143
     5.3380   6.8587   7.1802

     occupation numbers 
     1.0000   1.0000   1.0000   1.0000   1.0000   1.0000   1.0000   1.0000
     1.0000   1.0000   1.0000   1.0000   1.0000   1.0000   1.0000   0.0000
     0.0000   0.0000   0.0000

          k = 0.1667-0.4811 0.0000 (  3307 PWs)   bands (ev):

   -26.2919 -26.2864 -17.5212 -14.7925 -13.6312 -12.0131  -9.9921  -9.6949
    -9.1376  -8.2992  -7.6646  -6.4046  -5.5042  -4.6651  -4.5137   4.3143
     5.3380   6.8587   7.1803

     occupation numbers 
     1.0000   1.0000   1.0000   1.0000   1.0000   1.0000   1.0000   1.0000
     1.0000   1.0000   1.0000   1.0000   1.0000   1.0000   1.0000   0.0000
     0.0000   0.0000   0.0000

          k = 0.1667-0.2887 0.0000 (  3265 PWs)   bands (ev):

   -26.6864 -26.6655 -19.7271 -16.5731 -11.3501  -9.8619  -9.7421  -8.5154
    -8.2356  -7.6701  -6.4753  -5.5003  -4.6409  -4.2127  -3.9773   4.2271
     4.4620   6.4262   7.4515

     occupation numbers 
     1.0000   1.0000   1.0000   1.0000   1.0000   1.0000   1.0000   1.0000
     1.0000   1.0000   1.0000   1.0000   1.0000   1.0000   1.0000   0.0000
     0.0000   0.0000   0.0000

          k = 0.3333-0.1925-0.0000 (  3282 PWs)   bands (ev):

   -26.5550 -26.5398 -19.1593 -16.1028 -12.1998 -10.8596 -10.1828  -8.8823
    -7.6884  -7.4128  -6.7534  -5.9514  -4.9734  -4.3613  -3.4281   2.6762
     4.3773   5.5010   7.2005

     occupation numbers 
     1.0000   1.0000   1.0000   1.0000   1.0000   1.0000   1.0000   1.0000
     1.0000   1.0000   1.0000   1.0000   1.0000   1.0000   1.0000   0.0000
     0.0000   0.0000   0.0000

          k = 0.3333-0.0000-0.0000 (  3265 PWs)   bands (ev):

   -26.6864 -26.6655 -19.7271 -16.5731 -11.3501  -9.8619  -9.7421  -8.5154
    -8.2356  -7.6701  -6.4753  -5.5003  -4.6409  -4.2127  -3.9773   4.2271
     4.4619   6.4263   7.6578

     occupation numbers 
     1.0000   1.0000   1.0000   1.0000   1.0000   1.0000   1.0000   1.0000
     1.0000   1.0000   1.0000   1.0000   1.0000   1.0000   1.0000   0.0000
     0.0000   0.0000   0.0000

          k = 0.3333 0.1925-0.0000 (  3282 PWs)   bands (ev):

   -26.5550 -26.5398 -19.1593 -16.1028 -12.1998 -10.8596 -10.1827  -8.8823
    -7.6884  -7.4128  -6.7534  -5.9514  -4.9733  -4.3613  -3.4281   2.6762
     4.3773   5.5010   7.2006

     occupation numbers 
     1.0000   1.0000   1.0000   1.0000   1.0000   1.0000   1.0000   1.0000
     1.0000   1.0000   1.0000   1.0000   1.0000   1.0000   1.0000   0.0000
     0.0000   0.0000   0.0000

          k = 0.3333-0.7698 0.0000 (  3307 PWs)   bands (ev):

   -26.2919 -26.2864 -17.5212 -14.7925 -13.6312 -12.0131  -9.9921  -9.6949
    -9.1376  -8.2992  -7.6647  -6.4046  -5.5042  -4.6651  -4.5137   4.3142
     5.3380   6.8587   7.1803

     occupation numbers 
     1.0000   1.0000   1.0000   1.0000   1.0000   1.0000   1.0000   1.0000
     1.0000   1.0000   1.0000   1.0000   1.0000   1.0000   1.0000   0.0000
     0.0000   0.0000   0.0000

          k = 0.3333-0.5774 0.0000 (  3345 PWs)   bands (ev):

   -26.1599 -26.1597 -15.8374 -13.9641 -13.9641 -12.8651 -11.0881 -11.0881
    -8.6703  -8.6371  -8.6370  -5.9299  -5.8634  -5.8633  -4.6711   5.1488
     5.1489   8.3639   9.0431

     occupation numbers 
     1.0000   1.0000   1.0000   1.0000   1.0000   1.0000   1.0000   1.0000
     1.0000   1.0000   1.0000   1.0000   1.0000   1.0000   1.0000   0.0000
     0.0000   0.0000   0.0000

          k = 0.3333-0.3849-0.0000 (  3307 PWs)   bands (ev):

   -26.2919 -26.2864 -17.5212 -14.7925 -13.6312 -12.0131  -9.9921  -9.6949
    -9.1376  -8.2992  -7.6646  -6.4046  -5.5042  -4.6651  -4.5137   4.3143
     5.3380   6.8587   7.1803

     occupation numbers 
     1.0000   1.0000   1.0000   1.0000   1.0000   1.0000   1.0000   1.0000
     1.0000   1.0000   1.0000   1.0000   1.0000   1.0000   1.0000   0.0000
     0.0000   0.0000   0.0000

          k =-0.5000 0.2887 0.0000 (  3292 PWs)   bands (ev):

   -26.2844 -26.2817 -16.9898 -15.4050 -13.9237 -13.1945  -9.8138  -9.2905
    -8.1960  -7.8114  -7.1407  -6.8160  -5.2598  -4.5643  -3.7164   2.7238
     3.9422   4.9702   7.8519

     occupation numbers 
     1.0000   1.0000   1.0000   1.0000   1.0000   1.0000   1.0000   1.0000
     1.0000   1.0000   1.0000   1.0000   1.0000   1.0000   1.0000   0.0000
     0.0000   0.0000   0.0000

          k =-0.5000 0.4811 0.0000 (  3307 PWs)   bands (ev):

   -26.2919 -26.2864 -17.5212 -14.7925 -13.6312 -12.0131  -9.9921  -9.6949
    -9.1376  -8.2992  -7.6647  -6.4046  -5.5042  -4.6651  -4.5137   4.3142
     5.3380   6.8588   7.1803

     occupation numbers 
     1.0000   1.0000   1.0000   1.0000   1.0000   1.0000   1.0000   1.0000
     1.0000   1.0000   1.0000   1.0000   1.0000   1.0000   1.0000   0.0000
     0.0000   0.0000   0.0000

          k =-0.5000 0.6736 0.0000 (  3307 PWs)   bands (ev):

   -26.2919 -26.2864 -17.5212 -14.7925 -13.6312 -12.0131  -9.9921  -9.6949
    -9.1376  -8.2992  -7.6647  -6.4046  -5.5042  -4.6651  -4.5137   4.3142
     5.3380   6.8587   7.1803

     occupation numbers 
     1.0000   1.0000   1.0000   1.0000   1.0000   1.0000   1.0000   1.0000
     1.0000   1.0000   1.0000   1.0000   1.0000   1.0000   1.0000   0.0000
     0.0000   0.0000   0.0000

          k =-0.5000-0.2887 0.0001 (  3292 PWs)   bands (ev):

   -26.2844 -26.2817 -16.9898 -15.4050 -13.9237 -13.1945  -9.8138  -9.2905
    -8.1960  -7.8114  -7.1408  -6.8160  -5.2598  -4.5643  -3.7164   2.7238
     3.9421   4.9703   7.8536

     occupation numbers 
     1.0000   1.0000   1.0000   1.0000   1.0000   1.0000   1.0000   1.0000
     1.0000   1.0000   1.0000   1.0000   1.0000   1.0000   1.0000   0.0000
     0.0000   0.0000   0.0000

     the Fermi energy is     0.2314 ev

!    total energy              =    -189.93667600 Ry
     Harris-Foulkes estimate   =    -189.93667600 Ry
     estimated scf accuracy    <          3.8E-10 Ry

     total all-electron energy =      -701.908791 Ry

     The total energy is the sum of the following terms:

     one-electron contribution =   -1506.88317570 Ry
     hartree contribution      =     763.08475794 Ry
     xc contribution           =     -37.16213458 Ry
     ewald contribution        =     636.01910727 Ry
     one-center paw contrib.   =     -44.99523093 Ry
      -> PAW hartree energy AE =     117.84826598 Ry
      -> PAW hartree energy PS =    -117.76838541 Ry
      -> PAW xc energy AE      =     -80.48526164 Ry
      -> PAW xc energy PS      =      35.41015015 Ry
      -> total E_H with PAW    =     763.16463851 Ry
      -> total E_XC with PAW   =     -82.23724608 Ry
     smearing contrib. (-TS)   =      -0.00000000 Ry

     convergence has been achieved in  12 iterations

     negative rho (up, down):  6.368E-04 0.000E+00

     Forces acting on atoms (cartesian axes, Ry/au):

     atom    1 type  1   force =    -0.00000125   -0.00000125   -0.00907529
     atom    2 type  1   force =    -0.00000338   -0.00000250    0.00020473
     atom    3 type  1   force =     0.00000071    0.00000092    0.00907683
     atom    4 type  1   force =     0.00000225    0.00000190   -0.00025533
     atom    5 type  2   force =     0.00000230    0.00000175    0.01755579
     atom    6 type  2   force =    -0.00000063   -0.00000082   -0.01750672
     The non-local contrib.  to forces
     atom    1 type  1   force =    -0.00000455   -0.00000399   -0.40408179
     atom    2 type  1   force =    -0.00000596   -0.00000447    0.08292986
     atom    3 type  1   force =     0.00000260    0.00000281    0.40409543
     atom    4 type  1   force =     0.00000351    0.00000307   -0.08294855
     atom    5 type  2   force =     0.00004217    0.00003117    3.17441355
     atom    6 type  2   force =    -0.00001677   -0.00001683   -3.17440464
     The ionic contribution  to forces
     atom    1 type  1   force =     0.00006601    0.00004732  -13.36767802
     atom    2 type  1   force =    -0.00000457    0.00000014   -9.40120984
     atom    3 type  1   force =    -0.00002607   -0.00002490   13.36783775
     atom    4 type  1   force =    -0.00000452   -0.00000517    9.40118888
     atom    5 type  2   force =    -0.00005247   -0.00003943  -66.85280486
     atom    6 type  2   force =     0.00002161    0.00002204   66.85266609
     The local contribution  to forces
     atom    1 type  1   force =    -0.00006247   -0.00004448   13.75430118
     atom    2 type  1   force =     0.00000720    0.00000185    9.31976651
     atom    3 type  1   force =     0.00002395    0.00002290  -13.75447173
     atom    4 type  1   force =     0.00000302    0.00000388   -9.31971731
     atom    5 type  2   force =     0.00001279    0.00001012   63.70606252
     atom    6 type  2   force =    -0.00000521   -0.00000590  -63.70595929
     The core correction contribution to forces
     atom    1 type  1   force =    -0.00000016   -0.00000008    0.00833610
     atom    2 type  1   force =     0.00000005    0.00000004   -0.00132208
     atom    3 type  1   force =     0.00000034    0.00000019   -0.00841852
     atom    4 type  1   force =     0.00000029    0.00000017    0.00117892
     atom    5 type  2   force =    -0.00000009   -0.00000008   -0.01019421
     atom    6 type  2   force =    -0.00000001    0.00000002    0.01019390
     The Hubbard contrib.    to forces
     atom    1 type  1   force =     0.00000000    0.00000000    0.00000000
     atom    2 type  1   force =     0.00000000    0.00000000    0.00000000
     atom    3 type  1   force =     0.00000000    0.00000000    0.00000000
     atom    4 type  1   force =     0.00000000    0.00000000    0.00000000
     atom    5 type  2   force =     0.00000000    0.00000000    0.00000000
     atom    6 type  2   force =     0.00000000    0.00000000    0.00000000
     The SCF correction term to forces
     atom    1 type  1   force =     0.00000001    0.00000003    0.00001028
     atom    2 type  1   force =    -0.00000002    0.00000001    0.00000331
     atom    3 type  1   force =    -0.00000001   -0.00000003   -0.00000307
     atom    4 type  1   force =     0.00000004    0.00000000    0.00000577
     atom    5 type  2   force =    -0.00000001    0.00000001    0.00004183
     atom    6 type  2   force =    -0.00000017   -0.00000010   -0.00003975

     Total force =     0.027920     Total SCF correction =     0.000059


     Computing stress (Cartesian axis) and pressure


     negative rho (up, down):  6.368E-04 0.000E+00
          total   stress  (Ry/bohr**3)                   (kbar)     P=  -30.61
  -0.00020098  -0.00000000  -0.00000004        -29.57     -0.00     -0.01
  -0.00000000  -0.00020098  -0.00000002         -0.00    -29.56     -0.00
  -0.00000004  -0.00000002  -0.00022227         -0.01     -0.00    -32.70

     kinetic stress (kbar)   9166.79      0.00     -0.01
                                0.00   9166.79     -0.01
                               -0.01     -0.01   8324.97

     local   stress (kbar)-286811.60      0.01     -0.03
                                0.01-286811.62     -0.02
                               -0.03     -0.02 276370.25

     nonloc. stress (kbar)   3135.70     -0.00     -0.00
                               -0.00   3135.70     -0.00
                               -0.00     -0.00   2873.73

     hartree stress (kbar) 141383.80     -0.00      0.01
                               -0.00 141383.80      0.01
                                0.01      0.01-136840.37

     exc-cor stress (kbar)  -1130.21     -0.00      0.00
                               -0.00  -1130.21      0.00
                                0.00      0.00  -1126.87

     corecor stress (kbar)   -939.42      0.00     -0.00
                                0.00   -939.42     -0.00
                               -0.00     -0.00   -931.70

     ewald   stress (kbar) 135165.36     -0.01      0.03
                               -0.01 135165.37      0.02
                                0.03      0.02-148702.69

     hubbard stress (kbar)      0.00      0.00      0.00
                                0.00      0.00      0.00
                                0.00      0.00      0.00

     london  stress (kbar)      0.00      0.00      0.00
                                0.00      0.00      0.00
                                0.00      0.00      0.00

     DFT-D3  stress (kbar)      0.00      0.00      0.00
                                0.00      0.00      0.00
                                0.00      0.00      0.00

     XDM     stress (kbar)      0.00      0.00      0.00
                                0.00      0.00      0.00
                                0.00      0.00      0.00

     dft-nl  stress (kbar)      0.00      0.00      0.00
                                0.00      0.00      0.00
                                0.00      0.00      0.00

     TS-vdW  stress (kbar)      0.00      0.00      0.00
                                0.00      0.00      0.00
                                0.00      0.00      0.00

     3D-RISM stress (kbar)      0.00      0.00      0.00
                                0.00      0.00      0.00
                                0.00      0.00      0.00



     Writing output data file pwscf.save\

     init_run     :     11.11s CPU      6.32s WALL (       1 calls)
     electrons    :     78.81s CPU     56.11s WALL (       1 calls)
     forces       :      7.33s CPU      1.37s WALL (       1 calls)
     stress       :     17.31s CPU      3.70s WALL (       1 calls)

     Called by init_run:
     wfcinit      :      1.19s CPU      1.00s WALL (       1 calls)
     wfcinit:atom :      0.05s CPU      0.04s WALL (      20 calls)
     wfcinit:wfcr :      1.05s CPU      0.78s WALL (      20 calls)
     potinit      :      4.36s CPU      0.88s WALL (       1 calls)
     hinit0       :      5.27s CPU      4.17s WALL (       1 calls)

     Called by electrons:
     c_bands      :     62.80s CPU     45.79s WALL (      12 calls)
     sum_band     :      9.17s CPU      5.82s WALL (      12 calls)
     v_of_rho     :      2.14s CPU      1.10s WALL (      13 calls)
     v_h          :      0.11s CPU      0.12s WALL (      13 calls)
     v_xc         :      2.45s CPU      1.13s WALL (      15 calls)
     newd         :      1.80s CPU      1.55s WALL (      13 calls)
     PAW_pot      :      3.64s CPU      2.07s WALL (      13 calls)
     mix_rho      :      0.19s CPU      0.20s WALL (      12 calls)

     Called by c_bands:
     init_us_2    :      0.98s CPU      0.39s WALL (     540 calls)
     ccgdiagg     :     53.27s CPU     39.35s WALL (     240 calls)
     wfcrot       :      9.88s CPU      6.83s WALL (     240 calls)

     Called by sum_band:
     sum_band:bec :      0.14s CPU      0.14s WALL (     240 calls)
     addusdens    :      2.67s CPU      1.94s WALL (      12 calls)

     Called by *cgdiagg:
     h_psi        :     42.48s CPU     29.64s WALL (   12542 calls)
     s_psi        :      7.08s CPU      6.12s WALL (   24844 calls)
     cdiaghg      :      0.02s CPU      0.06s WALL (     240 calls)

     Called by h_psi:
     h_psi:pot    :     40.83s CPU     27.70s WALL (   12542 calls)
     h_psi:calbec :      9.50s CPU      5.04s WALL (   12542 calls)
     vloc_psi     :     26.33s CPU     19.46s WALL (   12542 calls)
     add_vuspsi   :      4.92s CPU      3.13s WALL (   12542 calls)
     hs_1psi      :     40.20s CPU     28.60s WALL (   12302 calls)
     s_1psi       :      8.06s CPU      6.83s WALL (   12302 calls)

     General routines
     calbec       :     13.52s CPU      7.93s WALL (   25184 calls)
     fft          :      0.23s CPU      0.21s WALL (     192 calls)
     ffts         :      0.03s CPU      0.01s WALL (      25 calls)
     fftw         :     16.97s CPU     10.79s WALL (   38484 calls)
     interpolate  :      0.00s CPU      0.04s WALL (      13 calls)

     Parallel routines

     PAW routines
     PAW_pot      :      3.64s CPU      2.07s WALL (      13 calls)

     PWSCF        :   1m55.69s CPU   1m 9.76s WALL


   This run was terminated on:  15:42:45  19Nov2024            

=------------------------------------------------------------------------------=
   JOB DONE.
=------------------------------------------------------------------------------=
