
     Program PWSCF v.6.4.1 starts on 19Nov2024 at 15:44: 4 

     This program is part of the open-source Quantum ESPRESSO suite
     for quantum simulation of materials; please cite
         "P. Giannozzi et al., J. Phys.:Condens. Matter 21 395502 (2009);
         "P. Giannozzi et al., J. Phys.:Condens. Matter 29 465901 (2017);
          URL http://www.quantum-espresso.org", 
     in publications or presentations arising from this work. More details at
     http://www.quantum-espresso.org/quote

     Parallel version (MPI & OpenMP), running on      12 processor cores
     Number of MPI processes:                 1
     Threads/MPI process:                    12

     MPI processes distributed on     1 nodes
     Waiting for input...
     Reading input from standard input

     Current dimensions of program PWSCF are:
     Max number of different atomic species (ntypx) = 10
     Max number of k-points (npk) =  40000
     Max angular momentum in pseudopotentials (lmaxx) =  3
               file C.pbesol-n-kjpaw_psl.1.0.0.UPF: wavefunction(s)  2S 2P renormalized
               file F.pbesol-n-kjpaw_psl.1.0.0.UPF: wavefunction(s)  2S 2P renormalized

     Subspace diagonalization in iterative solution of the eigenvalue problem:
     a serial algorithm will be used


     G-vector sticks info
     --------------------
     sticks:   dense  smooth     PW     G-vecs:    dense   smooth      PW
     Sum         583     313    109                88889    36565    7047



     bravais-lattice index     =            0
     lattice parameter (alat)  =       4.8507  a.u.
     unit-cell volume          =     769.2439 (a.u.)^3
     number of atoms/cell      =            6
     number of atomic types    =            2
     number of electrons       =        30.00
     number of Kohn-Sham states=           19
     kinetic-energy cutoff     =      50.0000  Ry
     charge density cutoff     =     360.0000  Ry
     convergence threshold     =      1.2E-09
     mixing beta               =       0.4000
     number of iterations used =            8  plain     mixing
     Exchange-correlation      = SLA PW PSX PSC ( 1  4 10  8 0 0)

     celldm(1)=   4.850737  celldm(2)=   0.000000  celldm(3)=   0.000000
     celldm(4)=   0.000000  celldm(5)=   0.000000  celldm(6)=   0.000000

     crystal axes: (cart. coord. in units of alat)
               a(1) = (   1.000000   0.000000   0.000000 )  
               a(2) = (   0.500000   0.866025   0.000000 )  
               a(3) = (   0.000640   0.000376   7.782340 )  

     reciprocal axes: (cart. coord. in units 2 pi/alat)
               b(1) = (  1.000000 -0.577350 -0.000054 )  
               b(2) = (  0.000000  1.154701 -0.000056 )  
               b(3) = (  0.000000  0.000000  0.128496 )  


     PseudoPot. # 1 for C  read from file:
     .\C.pbesol-n-kjpaw_psl.1.0.0.UPF
     MD5 check sum: f9b2fe17d1f478429498b05d17159f9e
     Pseudo is Projector augmented-wave + core cor, Zval =  4.0
     Generated using "atomic" code by A. Dal Corso v.6.3
     Shape of augmentation charge: PSQ
     Using radial grid of 1073 points,  4 beta functions with: 
                l(1) =   0
                l(2) =   0
                l(3) =   1
                l(4) =   1
     Q(r) pseudized with 0 coefficients 


     PseudoPot. # 2 for F  read from file:
     .\F.pbesol-n-kjpaw_psl.1.0.0.UPF
     MD5 check sum: d939582bcd23f1ece12cfc4fab8d9d36
     Pseudo is Projector augmented-wave + core cor, Zval =  7.0
     Generated using "atomic" code by A. Dal Corso v.6.3
     Shape of augmentation charge: PSQ
     Using radial grid of 1105 points,  4 beta functions with: 
                l(1) =   0
                l(2) =   0
                l(3) =   1
                l(4) =   1
     Q(r) pseudized with 0 coefficients 


     atomic species   valence    mass     pseudopotential
        C              4.00    12.01070     C ( 1.00)
        F              7.00    18.99840     F ( 1.00)

     No symmetry found


                                    s                        frac. trans.

      isym =  1     identity                                     

 cryst.   s( 1) = (     1          0          0      )
                  (     0          1          0      )
                  (     0          0          1      )

 cart.    s( 1) = (  1.0000000  0.0000000  0.0000000 )
                  (  0.0000000  1.0000000  0.0000000 )
                  (  0.0000000  0.0000000  1.0000000 )


   Cartesian axes

     site n.     atom                  positions (alat units)
         1           C   tau(   1) = (   0.0003519   0.0002070   3.9178512  )
         2           C   tau(   2) = (   0.5003526   0.2888824   4.1138039  )
         3           C   tau(   3) = (   1.0003491   0.5775541   4.9151223  )
         4           C   tau(   4) = (   0.5003488   0.2888789   4.7191654  )
         5           F   tau(   5) = (   0.0003452   0.0002019   3.3809522  )
         6           F   tau(   6) = (   1.0003518   0.5775569   5.4520245  )

   Crystallographic axes

     site n.     atom                  positions (cryst. coord.)
         1           C   tau(   1) = (  0.0000192  0.0000206  0.5034284  )
         2           C   tau(   2) = (  0.3333424  0.3333434  0.5286075  )
         3           C   tau(   3) = (  0.6666304  0.6666281  0.6315738  )
         4           C   tau(   4) = (  0.3333076  0.3333056  0.6063941  )
         5           F   tau(   5) = (  0.0000446  0.0000447  0.4344390  )
         6           F   tau(   6) = (  0.6666024  0.6666014  0.7005636  )

     number of k points=    20  Marzari-Vanderbilt smearing, width (Ry)=  0.0200
                       cart. coord. in units 2pi/alat
        k(    1) = (   0.0000000   0.0000000   0.0000000), wk =   0.0555556
        k(    2) = (   0.0000000   0.1924501  -0.0000093), wk =   0.1111111
        k(    3) = (   0.0000000   0.3849002  -0.0000186), wk =   0.1111111
        k(    4) = (   0.0000000  -0.5773503   0.0000279), wk =   0.0555556
        k(    5) = (   0.1666667  -0.0962251  -0.0000091), wk =   0.1111111
        k(    6) = (   0.1666667   0.0962250  -0.0000184), wk =   0.1111111
        k(    7) = (   0.1666667   0.2886751  -0.0000277), wk =   0.1111111
        k(    8) = (   0.1666667  -0.6735754   0.0000188), wk =   0.1111111
        k(    9) = (   0.1666667  -0.4811253   0.0000095), wk =   0.1111111
        k(   10) = (   0.1666667  -0.2886752   0.0000002), wk =   0.1111111
        k(   11) = (   0.3333333  -0.1924501  -0.0000181), wk =   0.1111111
        k(   12) = (   0.3333333  -0.0000000  -0.0000274), wk =   0.1111111
        k(   13) = (   0.3333333   0.1924501  -0.0000367), wk =   0.1111111
        k(   14) = (   0.3333333  -0.7698005   0.0000097), wk =   0.1111111
        k(   15) = (   0.3333333  -0.5773504   0.0000004), wk =   0.1111111
        k(   16) = (   0.3333333  -0.3849003  -0.0000088), wk =   0.1111111
        k(   17) = (  -0.5000000   0.2886752   0.0000272), wk =   0.0555556
        k(   18) = (  -0.5000000   0.4811253   0.0000179), wk =   0.1111111
        k(   19) = (  -0.5000000   0.6735754   0.0000086), wk =   0.1111111
        k(   20) = (  -0.5000000  -0.2886751   0.0000551), wk =   0.0555556

                       cryst. coord.
        k(    1) = (   0.0000000   0.0000000   0.0000000), wk =   0.0555556
        k(    2) = (   0.0000000   0.1666667   0.0000000), wk =   0.1111111
        k(    3) = (   0.0000000   0.3333333   0.0000000), wk =   0.1111111
        k(    4) = (   0.0000000  -0.5000000  -0.0000000), wk =   0.0555556
        k(    5) = (   0.1666667   0.0000000   0.0000000), wk =   0.1111111
        k(    6) = (   0.1666667   0.1666667   0.0000000), wk =   0.1111111
        k(    7) = (   0.1666667   0.3333333   0.0000000), wk =   0.1111111
        k(    8) = (   0.1666667  -0.5000000   0.0000000), wk =   0.1111111
        k(    9) = (   0.1666667  -0.3333333   0.0000000), wk =   0.1111111
        k(   10) = (   0.1666667  -0.1666667   0.0000000), wk =   0.1111111
        k(   11) = (   0.3333333   0.0000000   0.0000000), wk =   0.1111111
        k(   12) = (   0.3333333   0.1666667   0.0000000), wk =   0.1111111
        k(   13) = (   0.3333333   0.3333333   0.0000000), wk =   0.1111111
        k(   14) = (   0.3333333  -0.5000000   0.0000000), wk =   0.1111111
        k(   15) = (   0.3333333  -0.3333333   0.0000000), wk =   0.1111111
        k(   16) = (   0.3333333  -0.1666667   0.0000000), wk =   0.1111111
        k(   17) = (  -0.5000000   0.0000000  -0.0000000), wk =   0.0555556
        k(   18) = (  -0.5000000   0.1666667  -0.0000000), wk =   0.1111111
        k(   19) = (  -0.5000000   0.3333333  -0.0000000), wk =   0.1111111
        k(   20) = (  -0.5000000  -0.5000000  -0.0000000), wk =   0.0555556

     Dense  grid:    88889 G-vectors     FFT dimensions: (  30,  30, 240)

     Smooth grid:    36565 G-vectors     FFT dimensions: (  24,  24, 180)

     Dynamical RAM for                 wfc:       1.33 MB

     Dynamical RAM for     wfc (w. buffer):      27.96 MB

     Dynamical RAM for           str. fact:       2.71 MB

     Dynamical RAM for           local pot:       0.00 MB

     Dynamical RAM for          nlocal pot:       3.36 MB

     Dynamical RAM for                qrad:       0.67 MB

     Dynamical RAM for          rho,v,vnew:       9.01 MB

     Dynamical RAM for               rhoin:       3.00 MB

     Dynamical RAM for            rho*nmix:      21.70 MB

     Dynamical RAM for           G-vectors:       5.37 MB

     Dynamical RAM for          h,s,v(r/c):       0.02 MB

     Dynamical RAM for          <psi|beta>:       0.01 MB

     Dynamical RAM for      wfcinit/wfcrot:       3.38 MB

     Dynamical RAM for           addusdens:      63.75 MB

     Dynamical RAM for          addusforce:      80.71 MB

     Dynamical RAM for         addusstress:      67.82 MB

     Estimated static dynamical RAM per process >      86.10 MB

     Estimated max dynamical RAM per process >     166.81 MB

     Check: negative core charge=   -0.000005

     Initial potential from superposition of free atoms

     starting charge   29.99983, renormalised to   30.00000

     negative rho (up, down):  5.058E-04 0.000E+00
     Starting wfcs are   24 randomized atomic wfcs
     Checking if some PAW data can be deallocated... 

     total cpu time spent up to now is        8.8 secs

     Self-consistent Calculation

     iteration #  1     ecut=    50.00 Ry     beta= 0.40
     CG style diagonalization
     ethr =  1.00E-02,  avg # of iterations =  3.0

     negative rho (up, down):  4.391E-04 0.000E+00

     total cpu time spent up to now is       14.9 secs

     total energy              =    -189.90809012 Ry
     Harris-Foulkes estimate   =    -190.03837207 Ry
     estimated scf accuracy    <       0.33639888 Ry

     iteration #  2     ecut=    50.00 Ry     beta= 0.40
     CG style diagonalization
     ethr =  1.12E-03,  avg # of iterations =  3.5

     negative rho (up, down):  5.192E-04 0.000E+00

     total cpu time spent up to now is       19.6 secs

     total energy              =    -189.93683388 Ry
     Harris-Foulkes estimate   =    -189.95777402 Ry
     estimated scf accuracy    <       0.05867861 Ry

     iteration #  3     ecut=    50.00 Ry     beta= 0.40
     CG style diagonalization
     ethr =  1.96E-04,  avg # of iterations =  3.4

     negative rho (up, down):  5.956E-04 0.000E+00

     total cpu time spent up to now is       24.1 secs

     total energy              =    -189.93887222 Ry
     Harris-Foulkes estimate   =    -189.94224499 Ry
     estimated scf accuracy    <       0.00957597 Ry

     iteration #  4     ecut=    50.00 Ry     beta= 0.40
     CG style diagonalization
     c_bands:  1 eigenvalues not converged
     c_bands:  1 eigenvalues not converged
     ethr =  3.19E-05,  avg # of iterations =  4.2

     negative rho (up, down):  6.152E-04 0.000E+00

     total cpu time spent up to now is       30.4 secs

     total energy              =    -189.94026411 Ry
     Harris-Foulkes estimate   =    -189.94048411 Ry
     estimated scf accuracy    <       0.00080563 Ry

     iteration #  5     ecut=    50.00 Ry     beta= 0.40
     CG style diagonalization
     c_bands:  1 eigenvalues not converged
     c_bands:  1 eigenvalues not converged
     c_bands:  1 eigenvalues not converged
     c_bands:  1 eigenvalues not converged
     c_bands:  1 eigenvalues not converged
     ethr =  2.69E-06,  avg # of iterations =  4.8

     negative rho (up, down):  6.316E-04 0.000E+00

     total cpu time spent up to now is       37.7 secs

     total energy              =    -189.94049037 Ry
     Harris-Foulkes estimate   =    -189.94054035 Ry
     estimated scf accuracy    <       0.00012154 Ry

     iteration #  6     ecut=    50.00 Ry     beta= 0.40
     CG style diagonalization
     ethr =  4.05E-07,  avg # of iterations =  3.9

     negative rho (up, down):  6.348E-04 0.000E+00

     total cpu time spent up to now is       43.5 secs

     total energy              =    -189.94052135 Ry
     Harris-Foulkes estimate   =    -189.94054253 Ry
     estimated scf accuracy    <       0.00005975 Ry

     iteration #  7     ecut=    50.00 Ry     beta= 0.40
     CG style diagonalization
     ethr =  1.99E-07,  avg # of iterations =  3.5

     negative rho (up, down):  6.379E-04 0.000E+00

     total cpu time spent up to now is       48.6 secs

     total energy              =    -189.94053353 Ry
     Harris-Foulkes estimate   =    -189.94053386 Ry
     estimated scf accuracy    <       0.00000129 Ry

     iteration #  8     ecut=    50.00 Ry     beta= 0.40
     CG style diagonalization
     ethr =  4.29E-09,  avg # of iterations =  4.6

     negative rho (up, down):  6.386E-04 0.000E+00

     total cpu time spent up to now is       55.3 secs

     total energy              =    -189.94053479 Ry
     Harris-Foulkes estimate   =    -189.94053496 Ry
     estimated scf accuracy    <       0.00000065 Ry

     iteration #  9     ecut=    50.00 Ry     beta= 0.40
     CG style diagonalization
     ethr =  2.18E-09,  avg # of iterations =  3.3

     negative rho (up, down):  6.391E-04 0.000E+00

     total cpu time spent up to now is       60.9 secs

     total energy              =    -189.94053486 Ry
     Harris-Foulkes estimate   =    -189.94053490 Ry
     estimated scf accuracy    <       0.00000011 Ry

     iteration # 10     ecut=    50.00 Ry     beta= 0.40
     CG style diagonalization
     ethr =  3.69E-10,  avg # of iterations =  3.7

     negative rho (up, down):  6.393E-04 0.000E+00

     total cpu time spent up to now is       66.6 secs

     total energy              =    -189.94053488 Ry
     Harris-Foulkes estimate   =    -189.94053492 Ry
     estimated scf accuracy    <       0.00000008 Ry

     iteration # 11     ecut=    50.00 Ry     beta= 0.40
     CG style diagonalization
     ethr =  2.80E-10,  avg # of iterations =  3.4

     negative rho (up, down):  6.395E-04 0.000E+00

     total cpu time spent up to now is       71.6 secs

     total energy              =    -189.94053491 Ry
     Harris-Foulkes estimate   =    -189.94053491 Ry
     estimated scf accuracy    <          3.3E-09 Ry

     iteration # 12     ecut=    50.00 Ry     beta= 0.40
     CG style diagonalization
     ethr =  1.10E-11,  avg # of iterations =  4.3

     negative rho (up, down):  6.397E-04 0.000E+00

     total cpu time spent up to now is       77.4 secs

     End of self-consistent calculation

          k = 0.0000 0.0000 0.0000 (  4681 PWs)   bands (ev):

   -27.2858 -27.2380 -21.4628 -18.0385 -12.1192  -9.3978  -6.2221  -5.8035
    -5.8034  -5.5414  -5.5414  -3.2687  -3.2687  -2.0110  -2.0110   1.9645
     4.3220   4.6335   4.6335

     occupation numbers 
     1.0000   1.0000   1.0000   1.0000   1.0000   1.0000   1.0000   1.0000
     1.0000   1.0000   1.0000   1.0000   1.0000   1.0000   1.0000   0.0000
     0.0000   0.0000   0.0000

          k = 0.0000 0.1925-0.0000 (  4641 PWs)   bands (ev):

   -27.0505 -27.0138 -20.8802 -17.5440 -11.7679  -9.3395  -7.8091  -7.1997
    -6.4952  -6.2104  -5.9387  -4.3921  -3.7934  -3.6603  -2.6193   2.8115
     4.0511   5.7331   5.9778

     occupation numbers 
     1.0000   1.0000   1.0000   1.0000   1.0000   1.0000   1.0000   1.0000
     1.0000   1.0000   1.0000   1.0000   1.0000   1.0000   1.0000   0.0000
     0.0000   0.0000   0.0000

          k = 0.0000 0.3849-0.0000 (  4590 PWs)   bands (ev):

   -26.5482 -26.5329 -19.1555 -16.0992 -12.1961 -10.8560 -10.1791  -8.8781
    -7.6844  -7.4089  -6.7490  -5.9477  -4.9698  -4.3574  -3.4249   2.6789
     4.3800   5.5032   7.9917

     occupation numbers 
     1.0000   1.0000   1.0000   1.0000   1.0000   1.0000   1.0000   1.0000
     1.0000   1.0000   1.0000   1.0000   1.0000   1.0000   1.0000   0.0000
     0.0000   0.0000   0.0000

          k = 0.0000-0.5774 0.0000 (  4540 PWs)   bands (ev):

   -26.2773 -26.2747 -16.9860 -15.4010 -13.9201 -13.1908  -9.8101  -9.2862
    -8.1921  -7.8072  -7.1369  -6.8122  -5.2557  -4.5607  -3.7127   2.7265
     3.9446   4.9723   7.8546

     occupation numbers 
     1.0000   1.0000   1.0000   1.0000   1.0000   1.0000   1.0000   1.0000
     1.0000   1.0000   1.0000   1.0000   1.0000   1.0000   1.0000   0.0000
     0.0000   0.0000   0.0000

          k = 0.1667-0.0962-0.0000 (  4641 PWs)   bands (ev):

   -27.0505 -27.0138 -20.8802 -17.5440 -11.7679  -9.3395  -7.8091  -7.1997
    -6.4952  -6.2104  -5.9387  -4.3921  -3.7934  -3.6603  -2.6193   2.8115
     4.0510   5.7331   5.9778

     occupation numbers 
     1.0000   1.0000   1.0000   1.0000   1.0000   1.0000   1.0000   1.0000
     1.0000   1.0000   1.0000   1.0000   1.0000   1.0000   1.0000   0.0000
     0.0000   0.0000   0.0000

          k = 0.1667 0.0962-0.0000 (  4641 PWs)   bands (ev):

   -27.0505 -27.0138 -20.8802 -17.5440 -11.7679  -9.3395  -7.8091  -7.1997
    -6.4952  -6.2104  -5.9387  -4.3921  -3.7934  -3.6603  -2.6193   2.8114
     4.0510   5.7331   5.9779

     occupation numbers 
     1.0000   1.0000   1.0000   1.0000   1.0000   1.0000   1.0000   1.0000
     1.0000   1.0000   1.0000   1.0000   1.0000   1.0000   1.0000   0.0000
     0.0000   0.0000   0.0000

          k = 0.1667 0.2887-0.0000 (  4593 PWs)   bands (ev):

   -26.6796 -26.6588 -19.7234 -16.5695 -11.3463  -9.8580  -9.7384  -8.5115
    -8.2317  -7.6662  -6.4714  -5.4967  -4.6373  -4.2095  -3.9743   4.2301
     4.4638   6.4277   7.4534

     occupation numbers 
     1.0000   1.0000   1.0000   1.0000   1.0000   1.0000   1.0000   1.0000
     1.0000   1.0000   1.0000   1.0000   1.0000   1.0000   1.0000   0.0000
     0.0000   0.0000   0.0000

          k = 0.1667-0.6736 0.0000 (  4574 PWs)   bands (ev):

   -26.2848 -26.2793 -17.5174 -14.7889 -13.6273 -12.0095  -9.9882  -9.6908
    -9.1337  -8.2952  -7.6606  -6.4006  -5.5002  -4.6613  -4.5100   4.3167
     5.3403   6.8604   7.1818

     occupation numbers 
     1.0000   1.0000   1.0000   1.0000   1.0000   1.0000   1.0000   1.0000
     1.0000   1.0000   1.0000   1.0000   1.0000   1.0000   1.0000   0.0000
     0.0000   0.0000   0.0000

          k = 0.1667-0.4811 0.0000 (  4574 PWs)   bands (ev):

   -26.2848 -26.2793 -17.5174 -14.7889 -13.6273 -12.0095  -9.9882  -9.6908
    -9.1338  -8.2952  -7.6606  -6.4006  -5.5002  -4.6613  -4.5100   4.3168
     5.3403   6.8606   7.1819

     occupation numbers 
     1.0000   1.0000   1.0000   1.0000   1.0000   1.0000   1.0000   1.0000
     1.0000   1.0000   1.0000   1.0000   1.0000   1.0000   1.0000   0.0000
     0.0000   0.0000   0.0000

          k = 0.1667-0.2887 0.0000 (  4593 PWs)   bands (ev):

   -26.6796 -26.6588 -19.7234 -16.5695 -11.3463  -9.8580  -9.7384  -8.5116
    -8.2317  -7.6662  -6.4714  -5.4967  -4.6373  -4.2095  -3.9743   4.2301
     4.4639   6.4280   7.6531

     occupation numbers 
     1.0000   1.0000   1.0000   1.0000   1.0000   1.0000   1.0000   1.0000
     1.0000   1.0000   1.0000   1.0000   1.0000   1.0000   1.0000   0.0000
     0.0000   0.0000   0.0000

          k = 0.3333-0.1925-0.0000 (  4590 PWs)   bands (ev):

   -26.5482 -26.5329 -19.1555 -16.0992 -12.1961 -10.8560 -10.1791  -8.8781
    -7.6844  -7.4089  -6.7490  -5.9477  -4.9698  -4.3574  -3.4249   2.6789
     4.3799   5.5031   7.2031

     occupation numbers 
     1.0000   1.0000   1.0000   1.0000   1.0000   1.0000   1.0000   1.0000
     1.0000   1.0000   1.0000   1.0000   1.0000   1.0000   1.0000   0.0000
     0.0000   0.0000   0.0000

          k = 0.3333-0.0000-0.0000 (  4593 PWs)   bands (ev):

   -26.6796 -26.6588 -19.7234 -16.5695 -11.3463  -9.8580  -9.7384  -8.5115
    -8.2317  -7.6663  -6.4714  -5.4967  -4.6373  -4.2095  -3.9743   4.2301
     4.4638   6.4280   7.6558

     occupation numbers 
     1.0000   1.0000   1.0000   1.0000   1.0000   1.0000   1.0000   1.0000
     1.0000   1.0000   1.0000   1.0000   1.0000   1.0000   1.0000   0.0000
     0.0000   0.0000   0.0000

          k = 0.3333 0.1925-0.0000 (  4590 PWs)   bands (ev):

   -26.5482 -26.5329 -19.1555 -16.0992 -12.1961 -10.8560 -10.1791  -8.8781
    -7.6844  -7.4089  -6.7491  -5.9477  -4.9698  -4.3574  -3.4249   2.6789
     4.3799   5.5031   7.2030

     occupation numbers 
     1.0000   1.0000   1.0000   1.0000   1.0000   1.0000   1.0000   1.0000
     1.0000   1.0000   1.0000   1.0000   1.0000   1.0000   1.0000   0.0000
     0.0000   0.0000   0.0000

          k = 0.3333-0.7698 0.0000 (  4574 PWs)   bands (ev):

   -26.2848 -26.2793 -17.5174 -14.7889 -13.6273 -12.0095  -9.9882  -9.6908
    -9.1337  -8.2952  -7.6607  -6.4006  -5.5002  -4.6613  -4.5100   4.3167
     5.3403   6.8607   7.1819

     occupation numbers 
     1.0000   1.0000   1.0000   1.0000   1.0000   1.0000   1.0000   1.0000
     1.0000   1.0000   1.0000   1.0000   1.0000   1.0000   1.0000   0.0000
     0.0000   0.0000   0.0000

          k = 0.3333-0.5774 0.0000 (  4596 PWs)   bands (ev):

   -26.1527 -26.1525 -15.8337 -13.9603 -13.9603 -12.8616 -11.0842 -11.0842
    -8.6664  -8.6328  -8.6327  -5.9258  -5.8592  -5.8591  -4.6671   5.1512
     5.1513   8.3652   9.0442

     occupation numbers 
     1.0000   1.0000   1.0000   1.0000   1.0000   1.0000   1.0000   1.0000
     1.0000   1.0000   1.0000   1.0000   1.0000   1.0000   1.0000   0.0000
     0.0000   0.0000   0.0000

          k = 0.3333-0.3849-0.0000 (  4574 PWs)   bands (ev):

   -26.2848 -26.2793 -17.5174 -14.7889 -13.6273 -12.0095  -9.9882  -9.6908
    -9.1338  -8.2952  -7.6606  -6.4006  -5.5002  -4.6613  -4.5100   4.3168
     5.3403   6.8605   7.1819

     occupation numbers 
     1.0000   1.0000   1.0000   1.0000   1.0000   1.0000   1.0000   1.0000
     1.0000   1.0000   1.0000   1.0000   1.0000   1.0000   1.0000   0.0000
     0.0000   0.0000   0.0000

          k =-0.5000 0.2887 0.0000 (  4540 PWs)   bands (ev):

   -26.2773 -26.2747 -16.9860 -15.4010 -13.9201 -13.1908  -9.8101  -9.2862
    -8.1921  -7.8072  -7.1369  -6.8122  -5.2557  -4.5607  -3.7127   2.7265
     3.9446   4.9723   7.8565

     occupation numbers 
     1.0000   1.0000   1.0000   1.0000   1.0000   1.0000   1.0000   1.0000
     1.0000   1.0000   1.0000   1.0000   1.0000   1.0000   1.0000   0.0000
     0.0000   0.0000   0.0000

          k =-0.5000 0.4811 0.0000 (  4574 PWs)   bands (ev):

   -26.2848 -26.2793 -17.5174 -14.7889 -13.6273 -12.0095  -9.9882  -9.6908
    -9.1337  -8.2952  -7.6606  -6.4006  -5.5002  -4.6613  -4.5100   4.3167
     5.3403   6.8604   7.1818

     occupation numbers 
     1.0000   1.0000   1.0000   1.0000   1.0000   1.0000   1.0000   1.0000
     1.0000   1.0000   1.0000   1.0000   1.0000   1.0000   1.0000   0.0000
     0.0000   0.0000   0.0000

          k =-0.5000 0.6736 0.0000 (  4574 PWs)   bands (ev):

   -26.2848 -26.2793 -17.5174 -14.7889 -13.6273 -12.0095  -9.9882  -9.6908
    -9.1337  -8.2952  -7.6607  -6.4006  -5.5002  -4.6613  -4.5100   4.3167
     5.3403   6.8605   7.1819

     occupation numbers 
     1.0000   1.0000   1.0000   1.0000   1.0000   1.0000   1.0000   1.0000
     1.0000   1.0000   1.0000   1.0000   1.0000   1.0000   1.0000   0.0000
     0.0000   0.0000   0.0000

          k =-0.5000-0.2887 0.0001 (  4540 PWs)   bands (ev):

   -26.2773 -26.2747 -16.9860 -15.4010 -13.9200 -13.1908  -9.8101  -9.2862
    -8.1921  -7.8072  -7.1370  -6.8122  -5.2557  -4.5607  -3.7127   2.7265
     3.9445   4.9723   7.8545

     occupation numbers 
     1.0000   1.0000   1.0000   1.0000   1.0000   1.0000   1.0000   1.0000
     1.0000   1.0000   1.0000   1.0000   1.0000   1.0000   1.0000   0.0000
     0.0000   0.0000   0.0000

     the Fermi energy is     0.2339 ev

!    total energy              =    -189.94053491 Ry
     Harris-Foulkes estimate   =    -189.94053491 Ry
     estimated scf accuracy    <          9.4E-10 Ry

     total all-electron energy =      -701.912650 Ry

     The total energy is the sum of the following terms:

     one-electron contribution =   -1506.89834630 Ry
     hartree contribution      =     763.09766414 Ry
     xc contribution           =     -37.16365279 Ry
     ewald contribution        =     636.01910727 Ry
     one-center paw contrib.   =     -44.99530723 Ry
      -> PAW hartree energy AE =     117.85241741 Ry
      -> PAW hartree energy PS =    -117.77246444 Ry
      -> PAW xc energy AE      =     -80.48726495 Ry
      -> PAW xc energy PS      =      35.41200475 Ry
      -> total E_H with PAW    =     763.17761712 Ry
      -> total E_XC with PAW   =     -82.23891299 Ry
     smearing contrib. (-TS)   =      -0.00000000 Ry

     convergence has been achieved in  12 iterations

     negative rho (up, down):  6.397E-04 0.000E+00

     Forces acting on atoms (cartesian axes, Ry/au):

     atom    1 type  1   force =    -0.00000136   -0.00000125   -0.00903135
     atom    2 type  1   force =    -0.00000369   -0.00000259    0.00015830
     atom    3 type  1   force =     0.00000065    0.00000083    0.00903171
     atom    4 type  1   force =     0.00000248    0.00000196   -0.00021113
     atom    5 type  2   force =     0.00000247    0.00000188    0.01772724
     atom    6 type  2   force =    -0.00000055   -0.00000083   -0.01767477
     The non-local contrib.  to forces
     atom    1 type  1   force =    -0.00000475   -0.00000427   -0.40403224
     atom    2 type  1   force =    -0.00000580   -0.00000433    0.08234845
     atom    3 type  1   force =     0.00000284    0.00000325    0.40405067
     atom    4 type  1   force =     0.00000328    0.00000295   -0.08236013
     atom    5 type  2   force =     0.00004169    0.00003118    3.16848796
     atom    6 type  2   force =    -0.00001543   -0.00001636   -3.16846748
     The ionic contribution  to forces
     atom    1 type  1   force =     0.00006601    0.00004732  -13.36767802
     atom    2 type  1   force =    -0.00000457    0.00000014   -9.40120984
     atom    3 type  1   force =    -0.00002607   -0.00002490   13.36783775
     atom    4 type  1   force =    -0.00000452   -0.00000517    9.40118888
     atom    5 type  2   force =    -0.00005247   -0.00003943  -66.85280486
     atom    6 type  2   force =     0.00002161    0.00002204   66.85266609
     The local contribution  to forces
     atom    1 type  1   force =    -0.00006237   -0.00004399   13.75427172
     atom    2 type  1   force =     0.00000679    0.00000156    9.32019836
     atom    3 type  1   force =     0.00002382    0.00002216  -13.75444119
     atom    4 type  1   force =     0.00000350    0.00000409   -9.32014528
     atom    5 type  2   force =     0.00001382    0.00001064   63.71225738
     atom    6 type  2   force =    -0.00000688   -0.00000673  -63.71216282
     The core correction contribution to forces
     atom    1 type  1   force =    -0.00000012   -0.00000005    0.00833886
     atom    2 type  1   force =     0.00000004    0.00000003   -0.00123672
     atom    3 type  1   force =     0.00000023    0.00000011   -0.00841993
     atom    4 type  1   force =     0.00000036    0.00000021    0.00109297
     atom    5 type  2   force =    -0.00000012   -0.00000009   -0.01025989
     atom    6 type  2   force =    -0.00000002    0.00000001    0.01025897
     The Hubbard contrib.    to forces
     atom    1 type  1   force =     0.00000000    0.00000000    0.00000000
     atom    2 type  1   force =     0.00000000    0.00000000    0.00000000
     atom    3 type  1   force =     0.00000000    0.00000000    0.00000000
     atom    4 type  1   force =     0.00000000    0.00000000    0.00000000
     atom    5 type  2   force =     0.00000000    0.00000000    0.00000000
     atom    6 type  2   force =     0.00000000    0.00000000    0.00000000
     The SCF correction term to forces
     atom    1 type  1   force =    -0.00000000   -0.00000019    0.00003268
     atom    2 type  1   force =    -0.00000001    0.00000009    0.00002239
     atom    3 type  1   force =    -0.00000002    0.00000030   -0.00003125
     atom    4 type  1   force =     0.00000000   -0.00000003   -0.00002322
     atom    5 type  2   force =    -0.00000031   -0.00000034    0.00001098
     atom    6 type  2   force =     0.00000032    0.00000029   -0.00000518

     Total force =     0.028104     Total SCF correction =     0.000057


     Computing stress (Cartesian axis) and pressure


     negative rho (up, down):  6.397E-04 0.000E+00
          total   stress  (Ry/bohr**3)                   (kbar)     P=  -23.71
  -0.00014913  -0.00000000  -0.00000001        -21.94     -0.00     -0.00
  -0.00000000  -0.00014912  -0.00000000         -0.00    -21.94     -0.00
  -0.00000001  -0.00000000  -0.00018532         -0.00     -0.00    -27.26

     kinetic stress (kbar)   9163.30     -0.00     -0.01
                               -0.00   9163.30     -0.01
                               -0.01     -0.01   8322.52

     local   stress (kbar)-286810.57      0.01     -0.02
                                0.01-286810.59     -0.02
                               -0.02     -0.02 276372.02

     nonloc. stress (kbar)   3144.37     -0.00     -0.00
                               -0.00   3144.37     -0.00
                               -0.00     -0.00   2880.33

     hartree stress (kbar) 141385.26     -0.00      0.01
                               -0.00 141385.27      0.00
                                0.01      0.00-136840.84

     exc-cor stress (kbar)  -1130.24     -0.00      0.00
                               -0.00  -1130.24      0.00
                                0.00      0.00  -1126.93

     corecor stress (kbar)   -939.42      0.00      0.00
                                0.00   -939.42      0.00
                                0.00      0.00   -931.67

     ewald   stress (kbar) 135165.36     -0.01      0.03
                               -0.01 135165.37      0.02
                                0.03      0.02-148702.69

     hubbard stress (kbar)      0.00      0.00      0.00
                                0.00      0.00      0.00
                                0.00      0.00      0.00

     london  stress (kbar)      0.00      0.00      0.00
                                0.00      0.00      0.00
                                0.00      0.00      0.00

     DFT-D3  stress (kbar)      0.00      0.00      0.00
                                0.00      0.00      0.00
                                0.00      0.00      0.00

     XDM     stress (kbar)      0.00      0.00      0.00
                                0.00      0.00      0.00
                                0.00      0.00      0.00

     dft-nl  stress (kbar)      0.00      0.00      0.00
                                0.00      0.00      0.00
                                0.00      0.00      0.00

     TS-vdW  stress (kbar)      0.00      0.00      0.00
                                0.00      0.00      0.00
                                0.00      0.00      0.00

     3D-RISM stress (kbar)      0.00      0.00      0.00
                                0.00      0.00      0.00
                                0.00      0.00      0.00



     Writing output data file pwscf.save\

     init_run     :     11.03s CPU      6.72s WALL (       1 calls)
     electrons    :     91.48s CPU     68.62s WALL (       1 calls)
     forces       :      7.12s CPU      1.25s WALL (       1 calls)
     stress       :     18.69s CPU      3.57s WALL (       1 calls)

     Called by init_run:
     wfcinit      :      2.20s CPU      1.57s WALL (       1 calls)
     wfcinit:atom :      0.06s CPU      0.04s WALL (      20 calls)
     wfcinit:wfcr :      1.77s CPU      1.25s WALL (      20 calls)
     potinit      :      4.09s CPU      0.69s WALL (       1 calls)
     hinit0       :      4.66s CPU      4.27s WALL (       1 calls)

     Called by electrons:
     c_bands      :     74.88s CPU     58.54s WALL (      12 calls)
     sum_band     :      9.72s CPU      6.33s WALL (      12 calls)
     v_of_rho     :      1.77s CPU      0.88s WALL (      13 calls)
     v_h          :      0.08s CPU      0.08s WALL (      13 calls)
     v_xc         :      1.89s CPU      0.92s WALL (      15 calls)
     newd         :      1.53s CPU      1.05s WALL (      13 calls)
     PAW_pot      :      3.41s CPU      1.85s WALL (      13 calls)
     mix_rho      :      0.45s CPU      0.23s WALL (      12 calls)

     Called by c_bands:
     init_us_2    :      0.91s CPU      0.49s WALL (     540 calls)
     ccgdiagg     :     64.00s CPU     50.86s WALL (     240 calls)
     wfcrot       :     12.44s CPU      8.54s WALL (     240 calls)

     Called by sum_band:
     sum_band:bec :      0.06s CPU      0.12s WALL (     240 calls)
     addusdens    :      2.31s CPU      1.75s WALL (      12 calls)

     Called by *cgdiagg:
     h_psi        :     53.86s CPU     38.09s WALL (   13467 calls)
     s_psi        :      9.47s CPU      8.73s WALL (   26694 calls)
     cdiaghg      :      0.03s CPU      0.05s WALL (     240 calls)

     Called by h_psi:
     h_psi:pot    :     52.70s CPU     36.38s WALL (   13467 calls)
     h_psi:calbec :      5.61s CPU      4.17s WALL (   13467 calls)
     vloc_psi     :     40.36s CPU     28.00s WALL (   13467 calls)
     add_vuspsi   :      6.62s CPU      4.15s WALL (   13467 calls)
     hs_1psi      :     49.73s CPU     36.75s WALL (   13227 calls)
     s_1psi       :      9.59s CPU      9.20s WALL (   13227 calls)

     General routines
     calbec       :     10.20s CPU      8.15s WALL (   27034 calls)
     fft          :      0.11s CPU      0.16s WALL (     192 calls)
     ffts         :      0.02s CPU      0.01s WALL (      25 calls)
     fftw         :     31.62s CPU     20.46s WALL (   40334 calls)
     interpolate  :      0.02s CPU      0.06s WALL (      13 calls)

     Parallel routines

     PAW routines
     PAW_pot      :      3.41s CPU      1.85s WALL (      13 calls)

     PWSCF        :   2m 9.69s CPU   1m22.39s WALL


   This run was terminated on:  15:45:27  19Nov2024            

=------------------------------------------------------------------------------=
   JOB DONE.
=------------------------------------------------------------------------------=
