
     Program PWSCF v.6.4.1 starts on 22Nov2024 at 15: 1:58 

     This program is part of the open-source Quantum ESPRESSO suite
     for quantum simulation of materials; please cite
         "P. Giannozzi et al., J. Phys.:Condens. Matter 21 395502 (2009);
         "P. Giannozzi et al., J. Phys.:Condens. Matter 29 465901 (2017);
          URL http://www.quantum-espresso.org", 
     in publications or presentations arising from this work. More details at
     http://www.quantum-espresso.org/quote

     Parallel version (MPI & OpenMP), running on      12 processor cores
     Number of MPI processes:                 1
     Threads/MPI process:                    12

     MPI processes distributed on     1 nodes
     Waiting for input...
     Reading input from standard input
Warning: card 16+14 ignored

     Current dimensions of program PWSCF are:
     Max number of different atomic species (ntypx) = 10
     Max number of k-points (npk) =  40000
     Max angular momentum in pseudopotentials (lmaxx) =  3

     Atomic positions and unit cell read from directory:
     .\pwscf.save\

               file C.pbesol-n-kjpaw_psl.1.0.0.UPF: wavefunction(s)  2S 2P renormalized
               file F.pbesol-n-kjpaw_psl.1.0.0.UPF: wavefunction(s)  2S 2P renormalized

     Subspace diagonalization in iterative solution of the eigenvalue problem:
     a serial algorithm will be used


     G-vector sticks info
     --------------------
     sticks:   dense  smooth     PW     G-vecs:    dense   smooth      PW
     Sum         583     295     97                87545    30857    6359



     bravais-lattice index     =            0
     lattice parameter (alat)  =       4.8113  a.u.
     unit-cell volume          =     756.7755 (a.u.)^3
     number of atoms/cell      =            6
     number of atomic types    =            2
     number of electrons       =        30.00
     number of Kohn-Sham states=           30
     kinetic-energy cutoff     =      45.0000  Ry
     charge density cutoff     =     360.0000  Ry
     Exchange-correlation      = SLA PW PSX PSC ( 1  4 10  8 0 0)

     celldm(1)=   4.811264  celldm(2)=   0.000000  celldm(3)=   0.000000
     celldm(4)=   0.000000  celldm(5)=   0.000000  celldm(6)=   0.000000

     crystal axes: (cart. coord. in units of alat)
               a(1) = (   1.000000  -0.000000   0.000000 )  
               a(2) = (   0.500000   0.866025   0.000000 )  
               a(3) = (   0.000640   0.000376   7.846189 )  

     reciprocal axes: (cart. coord. in units 2 pi/alat)
               b(1) = (  1.000000 -0.577350 -0.000054 )  
               b(2) = (  0.000000  1.154700 -0.000055 )  
               b(3) = ( -0.000000  0.000000  0.127450 )  


     PseudoPot. # 1 for C  read from file:
     .\C.pbesol-n-kjpaw_psl.1.0.0.UPF
     MD5 check sum: 16577484316fc248e0eb7e27c7002f82
     Pseudo is Projector augmented-wave + core cor, Zval =  4.0
     Generated using "atomic" code by A. Dal Corso v.6.3
     Shape of augmentation charge: PSQ
     Using radial grid of 1073 points,  4 beta functions with: 
                l(1) =   0
                l(2) =   0
                l(3) =   1
                l(4) =   1
     Q(r) pseudized with 0 coefficients 


     PseudoPot. # 2 for F  read from file:
     .\F.pbesol-n-kjpaw_psl.1.0.0.UPF
     MD5 check sum: 9ed833fd24bdb51f4abd78f58267a7b7
     Pseudo is Projector augmented-wave + core cor, Zval =  7.0
     Generated using "atomic" code by A. Dal Corso v.6.3
     Shape of augmentation charge: PSQ
     Using radial grid of 1105 points,  4 beta functions with: 
                l(1) =   0
                l(2) =   0
                l(3) =   1
                l(4) =   1
     Q(r) pseudized with 0 coefficients 


     atomic species   valence    mass     pseudopotential
        C              4.00    12.01070     C ( 1.00)
        F              7.00    18.99840     F ( 1.00)

     No symmetry found


                                    s                        frac. trans.

      isym =  1     identity                                     

 cryst.   s( 1) = (     1          0          0      )
                  (     0          1          0      )
                  (     0          0          1      )

 cart.    s( 1) = (  1.0000000  0.0000000  0.0000000 )
                  (  0.0000000  1.0000000  0.0000000 )
                  (  0.0000000  0.0000000  1.0000000 )


   Cartesian axes

     site n.     atom                  positions (alat units)
         1           C   tau(   1) = (   0.0003519   0.0002070   3.9499945  )
         2           C   tau(   2) = (   0.5003526   0.2888824   4.1475548  )
         3           C   tau(   3) = (   1.0003489   0.5775541   4.9554475  )
         4           C   tau(   4) = (   0.5003487   0.2888789   4.7578829  )
         5           F   tau(   5) = (   0.0003452   0.0002019   3.4086906  )
         6           F   tau(   6) = (   1.0003517   0.5775569   5.4967546  )

   Crystallographic axes

     site n.     atom                  positions (cryst. coord.)
         1           C   tau(   1) = (  0.0000192  0.0000206  0.5034284  )
         2           C   tau(   2) = (  0.3333424  0.3333434  0.5286075  )
         3           C   tau(   3) = (  0.6666304  0.6666281  0.6315738  )
         4           C   tau(   4) = (  0.3333076  0.3333056  0.6063941  )
         5           F   tau(   5) = (  0.0000446  0.0000447  0.4344390  )
         6           F   tau(   6) = (  0.6666024  0.6666014  0.7005636  )

     number of k points=   580  Marzari-Vanderbilt smearing, width (Ry)=  0.0200
                       cart. coord. in units 2pi/alat
        k(    1) = (   0.0000000   0.0000000   0.0000000), wk =   0.0017361
        k(    2) = (   0.0000000   0.0000000  -0.0637252), wk =   0.0017361
        k(    3) = (   0.0000000   0.0481125  -0.0000023), wk =   0.0034722
        k(    4) = (   0.0000000   0.0481125  -0.0637275), wk =   0.0034722
        k(    5) = (   0.0000000   0.0962250  -0.0000046), wk =   0.0034722
        k(    6) = (   0.0000000   0.0962250  -0.0637298), wk =   0.0034722
        k(    7) = (   0.0000000   0.1443375  -0.0000069), wk =   0.0034722
        k(    8) = (   0.0000000   0.1443375  -0.0637321), wk =   0.0034722
        k(    9) = (   0.0000000   0.1924501  -0.0000092), wk =   0.0034722
        k(   10) = (   0.0000000   0.1924501  -0.0637344), wk =   0.0034722
        k(   11) = (   0.0000000   0.2405626  -0.0000115), wk =   0.0034722
        k(   12) = (   0.0000000   0.2405626  -0.0637367), wk =   0.0034722
        k(   13) = (   0.0000001   0.2886751  -0.0000138), wk =   0.0034722
        k(   14) = (   0.0000001   0.2886751  -0.0637390), wk =   0.0034722
        k(   15) = (   0.0000001   0.3367876  -0.0000161), wk =   0.0034722
        k(   16) = (   0.0000001   0.3367876  -0.0637413), wk =   0.0034722
        k(   17) = (   0.0000001   0.3849001  -0.0000184), wk =   0.0034722
        k(   18) = (   0.0000001   0.3849001  -0.0637436), wk =   0.0034722
        k(   19) = (   0.0000001   0.4330126  -0.0000207), wk =   0.0034722
        k(   20) = (   0.0000001   0.4330126  -0.0637459), wk =   0.0034722
        k(   21) = (   0.0000001   0.4811251  -0.0000230), wk =   0.0034722
        k(   22) = (   0.0000001   0.4811251  -0.0637482), wk =   0.0034722
        k(   23) = (   0.0000001   0.5292376  -0.0000253), wk =   0.0034722
        k(   24) = (   0.0000001   0.5292376  -0.0637505), wk =   0.0034722
        k(   25) = (  -0.0000001  -0.5773502   0.0000276), wk =   0.0017361
        k(   26) = (  -0.0000001  -0.5773502  -0.0636976), wk =   0.0017361
        k(   27) = (   0.0416667  -0.0240563  -0.0000022), wk =   0.0034722
        k(   28) = (   0.0416667  -0.0240563  -0.0637275), wk =   0.0034722
        k(   29) = (   0.0416667   0.0240563  -0.0000046), wk =   0.0034722
        k(   30) = (   0.0416667   0.0240563  -0.0637298), wk =   0.0034722
        k(   31) = (   0.0416667   0.0721688  -0.0000069), wk =   0.0034722
        k(   32) = (   0.0416667   0.0721688  -0.0637321), wk =   0.0034722
        k(   33) = (   0.0416667   0.1202813  -0.0000092), wk =   0.0034722
        k(   34) = (   0.0416667   0.1202813  -0.0637344), wk =   0.0034722
        k(   35) = (   0.0416667   0.1683938  -0.0000115), wk =   0.0034722
        k(   36) = (   0.0416667   0.1683938  -0.0637367), wk =   0.0034722
        k(   37) = (   0.0416667   0.2165063  -0.0000138), wk =   0.0034722
        k(   38) = (   0.0416667   0.2165063  -0.0637390), wk =   0.0034722
        k(   39) = (   0.0416667   0.2646188  -0.0000161), wk =   0.0034722
        k(   40) = (   0.0416667   0.2646188  -0.0637413), wk =   0.0034722
        k(   41) = (   0.0416667   0.3127313  -0.0000184), wk =   0.0034722
        k(   42) = (   0.0416667   0.3127313  -0.0637436), wk =   0.0034722
        k(   43) = (   0.0416667   0.3608438  -0.0000207), wk =   0.0034722
        k(   44) = (   0.0416667   0.3608438  -0.0637459), wk =   0.0034722
        k(   45) = (   0.0416668   0.4089564  -0.0000230), wk =   0.0034722
        k(   46) = (   0.0416668   0.4089564  -0.0637482), wk =   0.0034722
        k(   47) = (   0.0416668   0.4570689  -0.0000253), wk =   0.0034722
        k(   48) = (   0.0416668   0.4570689  -0.0637505), wk =   0.0034722
        k(   49) = (   0.0416668   0.5051814  -0.0000276), wk =   0.0034722
        k(   50) = (   0.0416668   0.5051814  -0.0637528), wk =   0.0034722
        k(   51) = (   0.0416665  -0.6014064   0.0000254), wk =   0.0034722
        k(   52) = (   0.0416665  -0.6014064  -0.0636998), wk =   0.0034722
        k(   53) = (   0.0416666  -0.5532939   0.0000231), wk =   0.0034722
        k(   54) = (   0.0416666  -0.5532939  -0.0637021), wk =   0.0034722
        k(   55) = (   0.0416666  -0.5051814   0.0000208), wk =   0.0034722
        k(   56) = (   0.0416666  -0.5051814  -0.0637044), wk =   0.0034722
        k(   57) = (   0.0416666  -0.4570689   0.0000185), wk =   0.0034722
        k(   58) = (   0.0416666  -0.4570689  -0.0637067), wk =   0.0034722
        k(   59) = (   0.0416666  -0.4089564   0.0000162), wk =   0.0034722
        k(   60) = (   0.0416666  -0.4089564  -0.0637090), wk =   0.0034722
        k(   61) = (   0.0416666  -0.3608438   0.0000139), wk =   0.0034722
        k(   62) = (   0.0416666  -0.3608438  -0.0637113), wk =   0.0034722
        k(   63) = (   0.0416666  -0.3127313   0.0000116), wk =   0.0034722
        k(   64) = (   0.0416666  -0.3127313  -0.0637136), wk =   0.0034722
        k(   65) = (   0.0416666  -0.2646188   0.0000093), wk =   0.0034722
        k(   66) = (   0.0416666  -0.2646188  -0.0637159), wk =   0.0034722
        k(   67) = (   0.0416666  -0.2165063   0.0000070), wk =   0.0034722
        k(   68) = (   0.0416666  -0.2165063  -0.0637182), wk =   0.0034722
        k(   69) = (   0.0416666  -0.1683938   0.0000047), wk =   0.0034722
        k(   70) = (   0.0416666  -0.1683938  -0.0637205), wk =   0.0034722
        k(   71) = (   0.0416666  -0.1202813   0.0000024), wk =   0.0034722
        k(   72) = (   0.0416666  -0.1202813  -0.0637228), wk =   0.0034722
        k(   73) = (   0.0416667  -0.0721688   0.0000001), wk =   0.0034722
        k(   74) = (   0.0416667  -0.0721688  -0.0637251), wk =   0.0034722
        k(   75) = (   0.0833333  -0.0481125  -0.0000045), wk =   0.0034722
        k(   76) = (   0.0833333  -0.0481125  -0.0637297), wk =   0.0034722
        k(   77) = (   0.0833333   0.0000000  -0.0000068), wk =   0.0034722
        k(   78) = (   0.0833333   0.0000000  -0.0637320), wk =   0.0034722
        k(   79) = (   0.0833333   0.0481125  -0.0000091), wk =   0.0034722
        k(   80) = (   0.0833333   0.0481125  -0.0637343), wk =   0.0034722
        k(   81) = (   0.0833334   0.0962250  -0.0000114), wk =   0.0034722
        k(   82) = (   0.0833334   0.0962250  -0.0637366), wk =   0.0034722
        k(   83) = (   0.0833334   0.1443375  -0.0000137), wk =   0.0034722
        k(   84) = (   0.0833334   0.1443375  -0.0637389), wk =   0.0034722
        k(   85) = (   0.0833334   0.1924501  -0.0000160), wk =   0.0034722
        k(   86) = (   0.0833334   0.1924501  -0.0637412), wk =   0.0034722
        k(   87) = (   0.0833334   0.2405626  -0.0000183), wk =   0.0034722
        k(   88) = (   0.0833334   0.2405626  -0.0637435), wk =   0.0034722
        k(   89) = (   0.0833334   0.2886751  -0.0000206), wk =   0.0034722
        k(   90) = (   0.0833334   0.2886751  -0.0637458), wk =   0.0034722
        k(   91) = (   0.0833334   0.3367876  -0.0000229), wk =   0.0034722
        k(   92) = (   0.0833334   0.3367876  -0.0637481), wk =   0.0034722
        k(   93) = (   0.0833334   0.3849001  -0.0000252), wk =   0.0034722
        k(   94) = (   0.0833334   0.3849001  -0.0637504), wk =   0.0034722
        k(   95) = (   0.0833334   0.4330126  -0.0000275), wk =   0.0034722
        k(   96) = (   0.0833334   0.4330126  -0.0637527), wk =   0.0034722
        k(   97) = (   0.0833334   0.4811251  -0.0000298), wk =   0.0034722
        k(   98) = (   0.0833334   0.4811251  -0.0637550), wk =   0.0034722
        k(   99) = (   0.0833332  -0.6254627   0.0000231), wk =   0.0034722
        k(  100) = (   0.0833332  -0.6254627  -0.0637021), wk =   0.0034722
        k(  101) = (   0.0833332  -0.5773501   0.0000208), wk =   0.0034722
        k(  102) = (   0.0833332  -0.5773501  -0.0637044), wk =   0.0034722
        k(  103) = (   0.0833332  -0.5292376   0.0000185), wk =   0.0034722
        k(  104) = (   0.0833332  -0.5292376  -0.0637067), wk =   0.0034722
        k(  105) = (   0.0833332  -0.4811251   0.0000162), wk =   0.0034722
        k(  106) = (   0.0833332  -0.4811251  -0.0637090), wk =   0.0034722
        k(  107) = (   0.0833332  -0.4330126   0.0000139), wk =   0.0034722
        k(  108) = (   0.0833332  -0.4330126  -0.0637113), wk =   0.0034722
        k(  109) = (   0.0833333  -0.3849001   0.0000116), wk =   0.0034722
        k(  110) = (   0.0833333  -0.3849001  -0.0637136), wk =   0.0034722
        k(  111) = (   0.0833333  -0.3367876   0.0000093), wk =   0.0034722
        k(  112) = (   0.0833333  -0.3367876  -0.0637159), wk =   0.0034722
        k(  113) = (   0.0833333  -0.2886751   0.0000070), wk =   0.0034722
        k(  114) = (   0.0833333  -0.2886751  -0.0637182), wk =   0.0034722
        k(  115) = (   0.0833333  -0.2405626   0.0000047), wk =   0.0034722
        k(  116) = (   0.0833333  -0.2405626  -0.0637205), wk =   0.0034722
        k(  117) = (   0.0833333  -0.1924500   0.0000024), wk =   0.0034722
        k(  118) = (   0.0833333  -0.1924500  -0.0637228), wk =   0.0034722
        k(  119) = (   0.0833333  -0.1443375   0.0000001), wk =   0.0034722
        k(  120) = (   0.0833333  -0.1443375  -0.0637251), wk =   0.0034722
        k(  121) = (   0.0833333  -0.0962250  -0.0000022), wk =   0.0034722
        k(  122) = (   0.0833333  -0.0962250  -0.0637274), wk =   0.0034722
        k(  123) = (   0.1250000  -0.0721688  -0.0000067), wk =   0.0034722
        k(  124) = (   0.1250000  -0.0721688  -0.0637320), wk =   0.0034722
        k(  125) = (   0.1250000  -0.0240562  -0.0000091), wk =   0.0034722
        k(  126) = (   0.1250000  -0.0240562  -0.0637343), wk =   0.0034722
        k(  127) = (   0.1250000   0.0240563  -0.0000114), wk =   0.0034722
        k(  128) = (   0.1250000   0.0240563  -0.0637366), wk =   0.0034722
        k(  129) = (   0.1250000   0.0721688  -0.0000137), wk =   0.0034722
        k(  130) = (   0.1250000   0.0721688  -0.0637389), wk =   0.0034722
        k(  131) = (   0.1250000   0.1202813  -0.0000160), wk =   0.0034722
        k(  132) = (   0.1250000   0.1202813  -0.0637412), wk =   0.0034722
        k(  133) = (   0.1250000   0.1683938  -0.0000183), wk =   0.0034722
        k(  134) = (   0.1250000   0.1683938  -0.0637435), wk =   0.0034722
        k(  135) = (   0.1250000   0.2165063  -0.0000206), wk =   0.0034722
        k(  136) = (   0.1250000   0.2165063  -0.0637458), wk =   0.0034722
        k(  137) = (   0.1250001   0.2646188  -0.0000229), wk =   0.0034722
        k(  138) = (   0.1250001   0.2646188  -0.0637481), wk =   0.0034722
        k(  139) = (   0.1250001   0.3127313  -0.0000252), wk =   0.0034722
        k(  140) = (   0.1250001   0.3127313  -0.0637504), wk =   0.0034722
        k(  141) = (   0.1250001   0.3608439  -0.0000275), wk =   0.0034722
        k(  142) = (   0.1250001   0.3608439  -0.0637527), wk =   0.0034722
        k(  143) = (   0.1250001   0.4089564  -0.0000298), wk =   0.0034722
        k(  144) = (   0.1250001   0.4089564  -0.0637550), wk =   0.0034722
        k(  145) = (   0.1250001   0.4570689  -0.0000321), wk =   0.0034722
        k(  146) = (   0.1250001   0.4570689  -0.0637573), wk =   0.0034722
        k(  147) = (   0.1249999  -0.6495189   0.0000209), wk =   0.0034722
        k(  148) = (   0.1249999  -0.6495189  -0.0637043), wk =   0.0034722
        k(  149) = (   0.1249999  -0.6014064   0.0000186), wk =   0.0034722
        k(  150) = (   0.1249999  -0.6014064  -0.0637066), wk =   0.0034722
        k(  151) = (   0.1249999  -0.5532939   0.0000163), wk =   0.0034722
        k(  152) = (   0.1249999  -0.5532939  -0.0637089), wk =   0.0034722
        k(  153) = (   0.1249999  -0.5051814   0.0000140), wk =   0.0034722
        k(  154) = (   0.1249999  -0.5051814  -0.0637112), wk =   0.0034722
        k(  155) = (   0.1249999  -0.4570689   0.0000117), wk =   0.0034722
        k(  156) = (   0.1249999  -0.4570689  -0.0637135), wk =   0.0034722
        k(  157) = (   0.1249999  -0.4089564   0.0000094), wk =   0.0034722
        k(  158) = (   0.1249999  -0.4089564  -0.0637158), wk =   0.0034722
        k(  159) = (   0.1249999  -0.3608438   0.0000071), wk =   0.0034722
        k(  160) = (   0.1249999  -0.3608438  -0.0637181), wk =   0.0034722
        k(  161) = (   0.1249999  -0.3127313   0.0000048), wk =   0.0034722
        k(  162) = (   0.1249999  -0.3127313  -0.0637204), wk =   0.0034722
        k(  163) = (   0.1249999  -0.2646188   0.0000025), wk =   0.0034722
        k(  164) = (   0.1249999  -0.2646188  -0.0637227), wk =   0.0034722
        k(  165) = (   0.1250000  -0.2165063   0.0000002), wk =   0.0034722
        k(  166) = (   0.1250000  -0.2165063  -0.0637250), wk =   0.0034722
        k(  167) = (   0.1250000  -0.1683938  -0.0000021), wk =   0.0034722
        k(  168) = (   0.1250000  -0.1683938  -0.0637273), wk =   0.0034722
        k(  169) = (   0.1250000  -0.1202813  -0.0000044), wk =   0.0034722
        k(  170) = (   0.1250000  -0.1202813  -0.0637296), wk =   0.0034722
        k(  171) = (   0.1666666  -0.0962250  -0.0000090), wk =   0.0034722
        k(  172) = (   0.1666666  -0.0962250  -0.0637342), wk =   0.0034722
        k(  173) = (   0.1666667  -0.0481125  -0.0000113), wk =   0.0034722
        k(  174) = (   0.1666667  -0.0481125  -0.0637365), wk =   0.0034722
        k(  175) = (   0.1666667   0.0000000  -0.0000136), wk =   0.0034722
        k(  176) = (   0.1666667   0.0000000  -0.0637388), wk =   0.0034722
        k(  177) = (   0.1666667   0.0481125  -0.0000159), wk =   0.0034722
        k(  178) = (   0.1666667   0.0481125  -0.0637411), wk =   0.0034722
        k(  179) = (   0.1666667   0.0962250  -0.0000182), wk =   0.0034722
        k(  180) = (   0.1666667   0.0962250  -0.0637434), wk =   0.0034722
        k(  181) = (   0.1666667   0.1443376  -0.0000205), wk =   0.0034722
        k(  182) = (   0.1666667   0.1443376  -0.0637457), wk =   0.0034722
        k(  183) = (   0.1666667   0.1924501  -0.0000228), wk =   0.0034722
        k(  184) = (   0.1666667   0.1924501  -0.0637480), wk =   0.0034722
        k(  185) = (   0.1666667   0.2405626  -0.0000251), wk =   0.0034722
        k(  186) = (   0.1666667   0.2405626  -0.0637503), wk =   0.0034722
        k(  187) = (   0.1666667   0.2886751  -0.0000274), wk =   0.0034722
        k(  188) = (   0.1666667   0.2886751  -0.0637526), wk =   0.0034722
        k(  189) = (   0.1666667   0.3367876  -0.0000297), wk =   0.0034722
        k(  190) = (   0.1666667   0.3367876  -0.0637549), wk =   0.0034722
        k(  191) = (   0.1666667   0.3849001  -0.0000320), wk =   0.0034722
        k(  192) = (   0.1666667   0.3849001  -0.0637572), wk =   0.0034722
        k(  193) = (   0.1666668   0.4330126  -0.0000343), wk =   0.0034722
        k(  194) = (   0.1666668   0.4330126  -0.0637595), wk =   0.0034722
        k(  195) = (   0.1666665  -0.6735752   0.0000187), wk =   0.0034722
        k(  196) = (   0.1666665  -0.6735752  -0.0637066), wk =   0.0034722
        k(  197) = (   0.1666665  -0.6254627   0.0000163), wk =   0.0034722
        k(  198) = (   0.1666665  -0.6254627  -0.0637089), wk =   0.0034722
        k(  199) = (   0.1666665  -0.5773501   0.0000140), wk =   0.0034722
        k(  200) = (   0.1666665  -0.5773501  -0.0637112), wk =   0.0034722
        k(  201) = (   0.1666666  -0.5292376   0.0000117), wk =   0.0034722
        k(  202) = (   0.1666666  -0.5292376  -0.0637135), wk =   0.0034722
        k(  203) = (   0.1666666  -0.4811251   0.0000094), wk =   0.0034722
        k(  204) = (   0.1666666  -0.4811251  -0.0637158), wk =   0.0034722
        k(  205) = (   0.1666666  -0.4330126   0.0000071), wk =   0.0034722
        k(  206) = (   0.1666666  -0.4330126  -0.0637181), wk =   0.0034722
        k(  207) = (   0.1666666  -0.3849001   0.0000048), wk =   0.0034722
        k(  208) = (   0.1666666  -0.3849001  -0.0637204), wk =   0.0034722
        k(  209) = (   0.1666666  -0.3367876   0.0000025), wk =   0.0034722
        k(  210) = (   0.1666666  -0.3367876  -0.0637227), wk =   0.0034722
        k(  211) = (   0.1666666  -0.2886751   0.0000002), wk =   0.0034722
        k(  212) = (   0.1666666  -0.2886751  -0.0637250), wk =   0.0034722
        k(  213) = (   0.1666666  -0.2405626  -0.0000021), wk =   0.0034722
        k(  214) = (   0.1666666  -0.2405626  -0.0637273), wk =   0.0034722
        k(  215) = (   0.1666666  -0.1924500  -0.0000044), wk =   0.0034722
        k(  216) = (   0.1666666  -0.1924500  -0.0637296), wk =   0.0034722
        k(  217) = (   0.1666666  -0.1443375  -0.0000067), wk =   0.0034722
        k(  218) = (   0.1666666  -0.1443375  -0.0637319), wk =   0.0034722
        k(  219) = (   0.2083333  -0.1202813  -0.0000112), wk =   0.0034722
        k(  220) = (   0.2083333  -0.1202813  -0.0637364), wk =   0.0034722
        k(  221) = (   0.2083333  -0.0721688  -0.0000135), wk =   0.0034722
        k(  222) = (   0.2083333  -0.0721688  -0.0637388), wk =   0.0034722
        k(  223) = (   0.2083333  -0.0240562  -0.0000159), wk =   0.0034722
        k(  224) = (   0.2083333  -0.0240562  -0.0637411), wk =   0.0034722
        k(  225) = (   0.2083333   0.0240563  -0.0000182), wk =   0.0034722
        k(  226) = (   0.2083333   0.0240563  -0.0637434), wk =   0.0034722
        k(  227) = (   0.2083333   0.0721688  -0.0000205), wk =   0.0034722
        k(  228) = (   0.2083333   0.0721688  -0.0637457), wk =   0.0034722
        k(  229) = (   0.2083334   0.1202813  -0.0000228), wk =   0.0034722
        k(  230) = (   0.2083334   0.1202813  -0.0637480), wk =   0.0034722
        k(  231) = (   0.2083334   0.1683938  -0.0000251), wk =   0.0034722
        k(  232) = (   0.2083334   0.1683938  -0.0637503), wk =   0.0034722
        k(  233) = (   0.2083334   0.2165063  -0.0000274), wk =   0.0034722
        k(  234) = (   0.2083334   0.2165063  -0.0637526), wk =   0.0034722
        k(  235) = (   0.2083334   0.2646188  -0.0000297), wk =   0.0034722
        k(  236) = (   0.2083334   0.2646188  -0.0637549), wk =   0.0034722
        k(  237) = (   0.2083334   0.3127313  -0.0000320), wk =   0.0034722
        k(  238) = (   0.2083334   0.3127313  -0.0637572), wk =   0.0034722
        k(  239) = (   0.2083334   0.3608439  -0.0000343), wk =   0.0034722
        k(  240) = (   0.2083334   0.3608439  -0.0637595), wk =   0.0034722
        k(  241) = (   0.2083334   0.4089564  -0.0000366), wk =   0.0034722
        k(  242) = (   0.2083334   0.4089564  -0.0637618), wk =   0.0034722
        k(  243) = (   0.2083332  -0.6976314   0.0000164), wk =   0.0034722
        k(  244) = (   0.2083332  -0.6976314  -0.0637088), wk =   0.0034722
        k(  245) = (   0.2083332  -0.6495189   0.0000141), wk =   0.0034722
        k(  246) = (   0.2083332  -0.6495189  -0.0637111), wk =   0.0034722
        k(  247) = (   0.2083332  -0.6014064   0.0000118), wk =   0.0034722
        k(  248) = (   0.2083332  -0.6014064  -0.0637134), wk =   0.0034722
        k(  249) = (   0.2083332  -0.5532939   0.0000095), wk =   0.0034722
        k(  250) = (   0.2083332  -0.5532939  -0.0637157), wk =   0.0034722
        k(  251) = (   0.2083332  -0.5051814   0.0000072), wk =   0.0034722
        k(  252) = (   0.2083332  -0.5051814  -0.0637180), wk =   0.0034722
        k(  253) = (   0.2083332  -0.4570689   0.0000049), wk =   0.0034722
        k(  254) = (   0.2083332  -0.4570689  -0.0637203), wk =   0.0034722
        k(  255) = (   0.2083332  -0.4089563   0.0000026), wk =   0.0034722
        k(  256) = (   0.2083332  -0.4089563  -0.0637226), wk =   0.0034722
        k(  257) = (   0.2083333  -0.3608438   0.0000003), wk =   0.0034722
        k(  258) = (   0.2083333  -0.3608438  -0.0637249), wk =   0.0034722
        k(  259) = (   0.2083333  -0.3127313  -0.0000020), wk =   0.0034722
        k(  260) = (   0.2083333  -0.3127313  -0.0637272), wk =   0.0034722
        k(  261) = (   0.2083333  -0.2646188  -0.0000043), wk =   0.0034722
        k(  262) = (   0.2083333  -0.2646188  -0.0637295), wk =   0.0034722
        k(  263) = (   0.2083333  -0.2165063  -0.0000066), wk =   0.0034722
        k(  264) = (   0.2083333  -0.2165063  -0.0637318), wk =   0.0034722
        k(  265) = (   0.2083333  -0.1683938  -0.0000089), wk =   0.0034722
        k(  266) = (   0.2083333  -0.1683938  -0.0637341), wk =   0.0034722
        k(  267) = (   0.2500000  -0.1443375  -0.0000135), wk =   0.0034722
        k(  268) = (   0.2500000  -0.1443375  -0.0637387), wk =   0.0034722
        k(  269) = (   0.2500000  -0.0962250  -0.0000158), wk =   0.0034722
        k(  270) = (   0.2500000  -0.0962250  -0.0637410), wk =   0.0034722
        k(  271) = (   0.2500000  -0.0481125  -0.0000181), wk =   0.0034722
        k(  272) = (   0.2500000  -0.0481125  -0.0637433), wk =   0.0034722
        k(  273) = (   0.2500000   0.0000000  -0.0000204), wk =   0.0034722
        k(  274) = (   0.2500000   0.0000000  -0.0637456), wk =   0.0034722
        k(  275) = (   0.2500000   0.0481125  -0.0000227), wk =   0.0034722
        k(  276) = (   0.2500000   0.0481125  -0.0637479), wk =   0.0034722
        k(  277) = (   0.2500000   0.0962250  -0.0000250), wk =   0.0034722
        k(  278) = (   0.2500000   0.0962250  -0.0637502), wk =   0.0034722
        k(  279) = (   0.2500000   0.1443376  -0.0000273), wk =   0.0034722
        k(  280) = (   0.2500000   0.1443376  -0.0637525), wk =   0.0034722
        k(  281) = (   0.2500000   0.1924501  -0.0000296), wk =   0.0034722
        k(  282) = (   0.2500000   0.1924501  -0.0637548), wk =   0.0034722
        k(  283) = (   0.2500000   0.2405626  -0.0000319), wk =   0.0034722
        k(  284) = (   0.2500000   0.2405626  -0.0637571), wk =   0.0034722
        k(  285) = (   0.2500001   0.2886751  -0.0000342), wk =   0.0034722
        k(  286) = (   0.2500001   0.2886751  -0.0637594), wk =   0.0034722
        k(  287) = (   0.2500001   0.3367876  -0.0000365), wk =   0.0034722
        k(  288) = (   0.2500001   0.3367876  -0.0637617), wk =   0.0034722
        k(  289) = (   0.2500001   0.3849001  -0.0000388), wk =   0.0034722
        k(  290) = (   0.2500001   0.3849001  -0.0637640), wk =   0.0034722
        k(  291) = (   0.2499999  -0.7216877   0.0000142), wk =   0.0034722
        k(  292) = (   0.2499999  -0.7216877  -0.0637110), wk =   0.0034722
        k(  293) = (   0.2499999  -0.6735752   0.0000119), wk =   0.0034722
        k(  294) = (   0.2499999  -0.6735752  -0.0637134), wk =   0.0034722
        k(  295) = (   0.2499999  -0.6254626   0.0000095), wk =   0.0034722
        k(  296) = (   0.2499999  -0.6254626  -0.0637157), wk =   0.0034722
        k(  297) = (   0.2499999  -0.5773501   0.0000072), wk =   0.0034722
        k(  298) = (   0.2499999  -0.5773501  -0.0637180), wk =   0.0034722
        k(  299) = (   0.2499999  -0.5292376   0.0000049), wk =   0.0034722
        k(  300) = (   0.2499999  -0.5292376  -0.0637203), wk =   0.0034722
        k(  301) = (   0.2499999  -0.4811251   0.0000026), wk =   0.0034722
        k(  302) = (   0.2499999  -0.4811251  -0.0637226), wk =   0.0034722
        k(  303) = (   0.2499999  -0.4330126   0.0000003), wk =   0.0034722
        k(  304) = (   0.2499999  -0.4330126  -0.0637249), wk =   0.0034722
        k(  305) = (   0.2499999  -0.3849001  -0.0000020), wk =   0.0034722
        k(  306) = (   0.2499999  -0.3849001  -0.0637272), wk =   0.0034722
        k(  307) = (   0.2499999  -0.3367876  -0.0000043), wk =   0.0034722
        k(  308) = (   0.2499999  -0.3367876  -0.0637295), wk =   0.0034722
        k(  309) = (   0.2499999  -0.2886751  -0.0000066), wk =   0.0034722
        k(  310) = (   0.2499999  -0.2886751  -0.0637318), wk =   0.0034722
        k(  311) = (   0.2500000  -0.2405625  -0.0000089), wk =   0.0034722
        k(  312) = (   0.2500000  -0.2405625  -0.0637341), wk =   0.0034722
        k(  313) = (   0.2500000  -0.1924500  -0.0000112), wk =   0.0034722
        k(  314) = (   0.2500000  -0.1924500  -0.0637364), wk =   0.0034722
        k(  315) = (   0.2916666  -0.1683938  -0.0000157), wk =   0.0034722
        k(  316) = (   0.2916666  -0.1683938  -0.0637409), wk =   0.0034722
        k(  317) = (   0.2916666  -0.1202813  -0.0000180), wk =   0.0034722
        k(  318) = (   0.2916666  -0.1202813  -0.0637432), wk =   0.0034722
        k(  319) = (   0.2916667  -0.0721687  -0.0000204), wk =   0.0034722
        k(  320) = (   0.2916667  -0.0721687  -0.0637456), wk =   0.0034722
        k(  321) = (   0.2916667  -0.0240562  -0.0000227), wk =   0.0034722
        k(  322) = (   0.2916667  -0.0240562  -0.0637479), wk =   0.0034722
        k(  323) = (   0.2916667   0.0240563  -0.0000250), wk =   0.0034722
        k(  324) = (   0.2916667   0.0240563  -0.0637502), wk =   0.0034722
        k(  325) = (   0.2916667   0.0721688  -0.0000273), wk =   0.0034722
        k(  326) = (   0.2916667   0.0721688  -0.0637525), wk =   0.0034722
        k(  327) = (   0.2916667   0.1202813  -0.0000296), wk =   0.0034722
        k(  328) = (   0.2916667   0.1202813  -0.0637548), wk =   0.0034722
        k(  329) = (   0.2916667   0.1683938  -0.0000319), wk =   0.0034722
        k(  330) = (   0.2916667   0.1683938  -0.0637571), wk =   0.0034722
        k(  331) = (   0.2916667   0.2165063  -0.0000342), wk =   0.0034722
        k(  332) = (   0.2916667   0.2165063  -0.0637594), wk =   0.0034722
        k(  333) = (   0.2916667   0.2646188  -0.0000365), wk =   0.0034722
        k(  334) = (   0.2916667   0.2646188  -0.0637617), wk =   0.0034722
        k(  335) = (   0.2916667   0.3127314  -0.0000388), wk =   0.0034722
        k(  336) = (   0.2916667   0.3127314  -0.0637640), wk =   0.0034722
        k(  337) = (   0.2916667   0.3608439  -0.0000411), wk =   0.0034722
        k(  338) = (   0.2916667   0.3608439  -0.0637663), wk =   0.0034722
        k(  339) = (   0.2916665  -0.7457439   0.0000119), wk =   0.0034722
        k(  340) = (   0.2916665  -0.7457439  -0.0637133), wk =   0.0034722
        k(  341) = (   0.2916665  -0.6976314   0.0000096), wk =   0.0034722
        k(  342) = (   0.2916665  -0.6976314  -0.0637156), wk =   0.0034722
        k(  343) = (   0.2916665  -0.6495189   0.0000073), wk =   0.0034722
        k(  344) = (   0.2916665  -0.6495189  -0.0637179), wk =   0.0034722
        k(  345) = (   0.2916665  -0.6014064   0.0000050), wk =   0.0034722
        k(  346) = (   0.2916665  -0.6014064  -0.0637202), wk =   0.0034722
        k(  347) = (   0.2916666  -0.5532939   0.0000027), wk =   0.0034722
        k(  348) = (   0.2916666  -0.5532939  -0.0637225), wk =   0.0034722
        k(  349) = (   0.2916666  -0.5051814   0.0000004), wk =   0.0034722
        k(  350) = (   0.2916666  -0.5051814  -0.0637248), wk =   0.0034722
        k(  351) = (   0.2916666  -0.4570689  -0.0000019), wk =   0.0034722
        k(  352) = (   0.2916666  -0.4570689  -0.0637271), wk =   0.0034722
        k(  353) = (   0.2916666  -0.4089563  -0.0000042), wk =   0.0034722
        k(  354) = (   0.2916666  -0.4089563  -0.0637294), wk =   0.0034722
        k(  355) = (   0.2916666  -0.3608438  -0.0000065), wk =   0.0034722
        k(  356) = (   0.2916666  -0.3608438  -0.0637317), wk =   0.0034722
        k(  357) = (   0.2916666  -0.3127313  -0.0000088), wk =   0.0034722
        k(  358) = (   0.2916666  -0.3127313  -0.0637340), wk =   0.0034722
        k(  359) = (   0.2916666  -0.2646188  -0.0000111), wk =   0.0034722
        k(  360) = (   0.2916666  -0.2646188  -0.0637363), wk =   0.0034722
        k(  361) = (   0.2916666  -0.2165063  -0.0000134), wk =   0.0034722
        k(  362) = (   0.2916666  -0.2165063  -0.0637386), wk =   0.0034722
        k(  363) = (   0.3333333  -0.1924500  -0.0000180), wk =   0.0034722
        k(  364) = (   0.3333333  -0.1924500  -0.0637432), wk =   0.0034722
        k(  365) = (   0.3333333  -0.1443375  -0.0000203), wk =   0.0034722
        k(  366) = (   0.3333333  -0.1443375  -0.0637455), wk =   0.0034722
        k(  367) = (   0.3333333  -0.0962250  -0.0000226), wk =   0.0034722
        k(  368) = (   0.3333333  -0.0962250  -0.0637478), wk =   0.0034722
        k(  369) = (   0.3333333  -0.0481125  -0.0000249), wk =   0.0034722
        k(  370) = (   0.3333333  -0.0481125  -0.0637501), wk =   0.0034722
        k(  371) = (   0.3333333   0.0000000  -0.0000272), wk =   0.0034722
        k(  372) = (   0.3333333   0.0000000  -0.0637524), wk =   0.0034722
        k(  373) = (   0.3333333   0.0481125  -0.0000295), wk =   0.0034722
        k(  374) = (   0.3333333   0.0481125  -0.0637547), wk =   0.0034722
        k(  375) = (   0.3333334   0.0962251  -0.0000318), wk =   0.0034722
        k(  376) = (   0.3333334   0.0962251  -0.0637570), wk =   0.0034722
        k(  377) = (   0.3333334   0.1443376  -0.0000341), wk =   0.0034722
        k(  378) = (   0.3333334   0.1443376  -0.0637593), wk =   0.0034722
        k(  379) = (   0.3333334   0.1924501  -0.0000364), wk =   0.0034722
        k(  380) = (   0.3333334   0.1924501  -0.0637616), wk =   0.0034722
        k(  381) = (   0.3333334   0.2405626  -0.0000387), wk =   0.0034722
        k(  382) = (   0.3333334   0.2405626  -0.0637639), wk =   0.0034722
        k(  383) = (   0.3333334   0.2886751  -0.0000410), wk =   0.0034722
        k(  384) = (   0.3333334   0.2886751  -0.0637662), wk =   0.0034722
        k(  385) = (   0.3333334   0.3367876  -0.0000433), wk =   0.0034722
        k(  386) = (   0.3333334   0.3367876  -0.0637685), wk =   0.0034722
        k(  387) = (   0.3333332  -0.7698002   0.0000097), wk =   0.0034722
        k(  388) = (   0.3333332  -0.7698002  -0.0637155), wk =   0.0034722
        k(  389) = (   0.3333332  -0.7216877   0.0000074), wk =   0.0034722
        k(  390) = (   0.3333332  -0.7216877  -0.0637179), wk =   0.0034722
        k(  391) = (   0.3333332  -0.6735752   0.0000050), wk =   0.0034722
        k(  392) = (   0.3333332  -0.6735752  -0.0637202), wk =   0.0034722
        k(  393) = (   0.3333332  -0.6254626   0.0000027), wk =   0.0034722
        k(  394) = (   0.3333332  -0.6254626  -0.0637225), wk =   0.0034722
        k(  395) = (   0.3333332  -0.5773501   0.0000004), wk =   0.0034722
        k(  396) = (   0.3333332  -0.5773501  -0.0637248), wk =   0.0034722
        k(  397) = (   0.3333332  -0.5292376  -0.0000019), wk =   0.0034722
        k(  398) = (   0.3333332  -0.5292376  -0.0637271), wk =   0.0034722
        k(  399) = (   0.3333332  -0.4811251  -0.0000042), wk =   0.0034722
        k(  400) = (   0.3333332  -0.4811251  -0.0637294), wk =   0.0034722
        k(  401) = (   0.3333332  -0.4330126  -0.0000065), wk =   0.0034722
        k(  402) = (   0.3333332  -0.4330126  -0.0637317), wk =   0.0034722
        k(  403) = (   0.3333333  -0.3849001  -0.0000088), wk =   0.0034722
        k(  404) = (   0.3333333  -0.3849001  -0.0637340), wk =   0.0034722
        k(  405) = (   0.3333333  -0.3367876  -0.0000111), wk =   0.0034722
        k(  406) = (   0.3333333  -0.3367876  -0.0637363), wk =   0.0034722
        k(  407) = (   0.3333333  -0.2886751  -0.0000134), wk =   0.0034722
        k(  408) = (   0.3333333  -0.2886751  -0.0637386), wk =   0.0034722
        k(  409) = (   0.3333333  -0.2405625  -0.0000157), wk =   0.0034722
        k(  410) = (   0.3333333  -0.2405625  -0.0637409), wk =   0.0034722
        k(  411) = (   0.3750000  -0.2165063  -0.0000202), wk =   0.0034722
        k(  412) = (   0.3750000  -0.2165063  -0.0637454), wk =   0.0034722
        k(  413) = (   0.3750000  -0.1683938  -0.0000225), wk =   0.0034722
        k(  414) = (   0.3750000  -0.1683938  -0.0637477), wk =   0.0034722
        k(  415) = (   0.3750000  -0.1202813  -0.0000248), wk =   0.0034722
        k(  416) = (   0.3750000  -0.1202813  -0.0637501), wk =   0.0034722
        k(  417) = (   0.3750000  -0.0721687  -0.0000272), wk =   0.0034722
        k(  418) = (   0.3750000  -0.0721687  -0.0637524), wk =   0.0034722
        k(  419) = (   0.3750000  -0.0240562  -0.0000295), wk =   0.0034722
        k(  420) = (   0.3750000  -0.0240562  -0.0637547), wk =   0.0034722
        k(  421) = (   0.3750000   0.0240563  -0.0000318), wk =   0.0034722
        k(  422) = (   0.3750000   0.0240563  -0.0637570), wk =   0.0034722
        k(  423) = (   0.3750000   0.0721688  -0.0000341), wk =   0.0034722
        k(  424) = (   0.3750000   0.0721688  -0.0637593), wk =   0.0034722
        k(  425) = (   0.3750000   0.1202813  -0.0000364), wk =   0.0034722
        k(  426) = (   0.3750000   0.1202813  -0.0637616), wk =   0.0034722
        k(  427) = (   0.3750000   0.1683938  -0.0000387), wk =   0.0034722
        k(  428) = (   0.3750000   0.1683938  -0.0637639), wk =   0.0034722
        k(  429) = (   0.3750000   0.2165063  -0.0000410), wk =   0.0034722
        k(  430) = (   0.3750000   0.2165063  -0.0637662), wk =   0.0034722
        k(  431) = (   0.3750001   0.2646188  -0.0000433), wk =   0.0034722
        k(  432) = (   0.3750001   0.2646188  -0.0637685), wk =   0.0034722
        k(  433) = (   0.3750001   0.3127314  -0.0000456), wk =   0.0034722
        k(  434) = (   0.3750001   0.3127314  -0.0637708), wk =   0.0034722
        k(  435) = (   0.3749998  -0.7938564   0.0000074), wk =   0.0034722
        k(  436) = (   0.3749998  -0.7938564  -0.0637178), wk =   0.0034722
        k(  437) = (   0.3749998  -0.7457439   0.0000051), wk =   0.0034722
        k(  438) = (   0.3749998  -0.7457439  -0.0637201), wk =   0.0034722
        k(  439) = (   0.3749999  -0.6976314   0.0000028), wk =   0.0034722
        k(  440) = (   0.3749999  -0.6976314  -0.0637224), wk =   0.0034722
        k(  441) = (   0.3749999  -0.6495189   0.0000005), wk =   0.0034722
        k(  442) = (   0.3749999  -0.6495189  -0.0637247), wk =   0.0034722
        k(  443) = (   0.3749999  -0.6014064  -0.0000018), wk =   0.0034722
        k(  444) = (   0.3749999  -0.6014064  -0.0637270), wk =   0.0034722
        k(  445) = (   0.3749999  -0.5532939  -0.0000041), wk =   0.0034722
        k(  446) = (   0.3749999  -0.5532939  -0.0637293), wk =   0.0034722
        k(  447) = (   0.3749999  -0.5051814  -0.0000064), wk =   0.0034722
        k(  448) = (   0.3749999  -0.5051814  -0.0637316), wk =   0.0034722
        k(  449) = (   0.3749999  -0.4570688  -0.0000087), wk =   0.0034722
        k(  450) = (   0.3749999  -0.4570688  -0.0637339), wk =   0.0034722
        k(  451) = (   0.3749999  -0.4089563  -0.0000110), wk =   0.0034722
        k(  452) = (   0.3749999  -0.4089563  -0.0637362), wk =   0.0034722
        k(  453) = (   0.3749999  -0.3608438  -0.0000133), wk =   0.0034722
        k(  454) = (   0.3749999  -0.3608438  -0.0637385), wk =   0.0034722
        k(  455) = (   0.3749999  -0.3127313  -0.0000156), wk =   0.0034722
        k(  456) = (   0.3749999  -0.3127313  -0.0637408), wk =   0.0034722
        k(  457) = (   0.3749999  -0.2646188  -0.0000179), wk =   0.0034722
        k(  458) = (   0.3749999  -0.2646188  -0.0637431), wk =   0.0034722
        k(  459) = (   0.4166666  -0.2405625  -0.0000225), wk =   0.0034722
        k(  460) = (   0.4166666  -0.2405625  -0.0637477), wk =   0.0034722
        k(  461) = (   0.4166666  -0.1924500  -0.0000248), wk =   0.0034722
        k(  462) = (   0.4166666  -0.1924500  -0.0637500), wk =   0.0034722
        k(  463) = (   0.4166666  -0.1443375  -0.0000271), wk =   0.0034722
        k(  464) = (   0.4166666  -0.1443375  -0.0637523), wk =   0.0034722
        k(  465) = (   0.4166666  -0.0962250  -0.0000294), wk =   0.0034722
        k(  466) = (   0.4166666  -0.0962250  -0.0637546), wk =   0.0034722
        k(  467) = (   0.4166667  -0.0481125  -0.0000317), wk =   0.0034722
        k(  468) = (   0.4166667  -0.0481125  -0.0637569), wk =   0.0034722
        k(  469) = (   0.4166667   0.0000000  -0.0000340), wk =   0.0034722
        k(  470) = (   0.4166667   0.0000000  -0.0637592), wk =   0.0034722
        k(  471) = (   0.4166667   0.0481125  -0.0000363), wk =   0.0034722
        k(  472) = (   0.4166667   0.0481125  -0.0637615), wk =   0.0034722
        k(  473) = (   0.4166667   0.0962251  -0.0000386), wk =   0.0034722
        k(  474) = (   0.4166667   0.0962251  -0.0637638), wk =   0.0034722
        k(  475) = (   0.4166667   0.1443376  -0.0000409), wk =   0.0034722
        k(  476) = (   0.4166667   0.1443376  -0.0637661), wk =   0.0034722
        k(  477) = (   0.4166667   0.1924501  -0.0000432), wk =   0.0034722
        k(  478) = (   0.4166667   0.1924501  -0.0637684), wk =   0.0034722
        k(  479) = (   0.4166667   0.2405626  -0.0000455), wk =   0.0034722
        k(  480) = (   0.4166667   0.2405626  -0.0637707), wk =   0.0034722
        k(  481) = (   0.4166667   0.2886751  -0.0000478), wk =   0.0034722
        k(  482) = (   0.4166667   0.2886751  -0.0637730), wk =   0.0034722
        k(  483) = (   0.4166665  -0.8179127   0.0000052), wk =   0.0034722
        k(  484) = (   0.4166665  -0.8179127  -0.0637200), wk =   0.0034722
        k(  485) = (   0.4166665  -0.7698002   0.0000029), wk =   0.0034722
        k(  486) = (   0.4166665  -0.7698002  -0.0637223), wk =   0.0034722
        k(  487) = (   0.4166665  -0.7216877   0.0000006), wk =   0.0034722
        k(  488) = (   0.4166665  -0.7216877  -0.0637247), wk =   0.0034722
        k(  489) = (   0.4166665  -0.6735752  -0.0000018), wk =   0.0034722
        k(  490) = (   0.4166665  -0.6735752  -0.0637270), wk =   0.0034722
        k(  491) = (   0.4166665  -0.6254626  -0.0000041), wk =   0.0034722
        k(  492) = (   0.4166665  -0.6254626  -0.0637293), wk =   0.0034722
        k(  493) = (   0.4166665  -0.5773501  -0.0000064), wk =   0.0034722
        k(  494) = (   0.4166665  -0.5773501  -0.0637316), wk =   0.0034722
        k(  495) = (   0.4166666  -0.5292376  -0.0000087), wk =   0.0034722
        k(  496) = (   0.4166666  -0.5292376  -0.0637339), wk =   0.0034722
        k(  497) = (   0.4166666  -0.4811251  -0.0000110), wk =   0.0034722
        k(  498) = (   0.4166666  -0.4811251  -0.0637362), wk =   0.0034722
        k(  499) = (   0.4166666  -0.4330126  -0.0000133), wk =   0.0034722
        k(  500) = (   0.4166666  -0.4330126  -0.0637385), wk =   0.0034722
        k(  501) = (   0.4166666  -0.3849001  -0.0000156), wk =   0.0034722
        k(  502) = (   0.4166666  -0.3849001  -0.0637408), wk =   0.0034722
        k(  503) = (   0.4166666  -0.3367876  -0.0000179), wk =   0.0034722
        k(  504) = (   0.4166666  -0.3367876  -0.0637431), wk =   0.0034722
        k(  505) = (   0.4166666  -0.2886750  -0.0000202), wk =   0.0034722
        k(  506) = (   0.4166666  -0.2886750  -0.0637454), wk =   0.0034722
        k(  507) = (   0.4583333  -0.2646188  -0.0000247), wk =   0.0034722
        k(  508) = (   0.4583333  -0.2646188  -0.0637499), wk =   0.0034722
        k(  509) = (   0.4583333  -0.2165063  -0.0000270), wk =   0.0034722
        k(  510) = (   0.4583333  -0.2165063  -0.0637522), wk =   0.0034722
        k(  511) = (   0.4583333  -0.1683938  -0.0000293), wk =   0.0034722
        k(  512) = (   0.4583333  -0.1683938  -0.0637545), wk =   0.0034722
        k(  513) = (   0.4583333  -0.1202812  -0.0000317), wk =   0.0034722
        k(  514) = (   0.4583333  -0.1202812  -0.0637569), wk =   0.0034722
        k(  515) = (   0.4583333  -0.0721687  -0.0000340), wk =   0.0034722
        k(  516) = (   0.4583333  -0.0721687  -0.0637592), wk =   0.0034722
        k(  517) = (   0.4583333  -0.0240562  -0.0000363), wk =   0.0034722
        k(  518) = (   0.4583333  -0.0240562  -0.0637615), wk =   0.0034722
        k(  519) = (   0.4583333   0.0240563  -0.0000386), wk =   0.0034722
        k(  520) = (   0.4583333   0.0240563  -0.0637638), wk =   0.0034722
        k(  521) = (   0.4583333   0.0721688  -0.0000409), wk =   0.0034722
        k(  522) = (   0.4583333   0.0721688  -0.0637661), wk =   0.0034722
        k(  523) = (   0.4583334   0.1202813  -0.0000432), wk =   0.0034722
        k(  524) = (   0.4583334   0.1202813  -0.0637684), wk =   0.0034722
        k(  525) = (   0.4583334   0.1683938  -0.0000455), wk =   0.0034722
        k(  526) = (   0.4583334   0.1683938  -0.0637707), wk =   0.0034722
        k(  527) = (   0.4583334   0.2165063  -0.0000478), wk =   0.0034722
        k(  528) = (   0.4583334   0.2165063  -0.0637730), wk =   0.0034722
        k(  529) = (   0.4583334   0.2646189  -0.0000501), wk =   0.0034722
        k(  530) = (   0.4583334   0.2646189  -0.0637753), wk =   0.0034722
        k(  531) = (   0.4583332  -0.8419689   0.0000029), wk =   0.0034722
        k(  532) = (   0.4583332  -0.8419689  -0.0637223), wk =   0.0034722
        k(  533) = (   0.4583332  -0.7938564   0.0000006), wk =   0.0034722
        k(  534) = (   0.4583332  -0.7938564  -0.0637246), wk =   0.0034722
        k(  535) = (   0.4583332  -0.7457439  -0.0000017), wk =   0.0034722
        k(  536) = (   0.4583332  -0.7457439  -0.0637269), wk =   0.0034722
        k(  537) = (   0.4583332  -0.6976314  -0.0000040), wk =   0.0034722
        k(  538) = (   0.4583332  -0.6976314  -0.0637292), wk =   0.0034722
        k(  539) = (   0.4583332  -0.6495189  -0.0000063), wk =   0.0034722
        k(  540) = (   0.4583332  -0.6495189  -0.0637315), wk =   0.0034722
        k(  541) = (   0.4583332  -0.6014064  -0.0000086), wk =   0.0034722
        k(  542) = (   0.4583332  -0.6014064  -0.0637338), wk =   0.0034722
        k(  543) = (   0.4583332  -0.5532939  -0.0000109), wk =   0.0034722
        k(  544) = (   0.4583332  -0.5532939  -0.0637361), wk =   0.0034722
        k(  545) = (   0.4583332  -0.5051814  -0.0000132), wk =   0.0034722
        k(  546) = (   0.4583332  -0.5051814  -0.0637384), wk =   0.0034722
        k(  547) = (   0.4583332  -0.4570688  -0.0000155), wk =   0.0034722
        k(  548) = (   0.4583332  -0.4570688  -0.0637407), wk =   0.0034722
        k(  549) = (   0.4583332  -0.4089563  -0.0000178), wk =   0.0034722
        k(  550) = (   0.4583332  -0.4089563  -0.0637430), wk =   0.0034722
        k(  551) = (   0.4583333  -0.3608438  -0.0000201), wk =   0.0034722
        k(  552) = (   0.4583333  -0.3608438  -0.0637453), wk =   0.0034722
        k(  553) = (   0.4583333  -0.3127313  -0.0000224), wk =   0.0034722
        k(  554) = (   0.4583333  -0.3127313  -0.0637476), wk =   0.0034722
        k(  555) = (  -0.4999999   0.2886750   0.0000270), wk =   0.0017361
        k(  556) = (  -0.4999999   0.2886750  -0.0636982), wk =   0.0017361
        k(  557) = (  -0.4999999   0.3367876   0.0000247), wk =   0.0034722
        k(  558) = (  -0.4999999   0.3367876  -0.0637005), wk =   0.0034722
        k(  559) = (  -0.4999999   0.3849001   0.0000224), wk =   0.0034722
        k(  560) = (  -0.4999999   0.3849001  -0.0637028), wk =   0.0034722
        k(  561) = (  -0.4999999   0.4330126   0.0000201), wk =   0.0034722
        k(  562) = (  -0.4999999   0.4330126  -0.0637051), wk =   0.0034722
        k(  563) = (  -0.4999999   0.4811251   0.0000178), wk =   0.0034722
        k(  564) = (  -0.4999999   0.4811251  -0.0637074), wk =   0.0034722
        k(  565) = (  -0.4999999   0.5292376   0.0000155), wk =   0.0034722
        k(  566) = (  -0.4999999   0.5292376  -0.0637097), wk =   0.0034722
        k(  567) = (  -0.4999999   0.5773501   0.0000132), wk =   0.0034722
        k(  568) = (  -0.4999999   0.5773501  -0.0637120), wk =   0.0034722
        k(  569) = (  -0.4999999   0.6254626   0.0000109), wk =   0.0034722
        k(  570) = (  -0.4999999   0.6254626  -0.0637143), wk =   0.0034722
        k(  571) = (  -0.4999999   0.6735751   0.0000086), wk =   0.0034722
        k(  572) = (  -0.4999999   0.6735751  -0.0637166), wk =   0.0034722
        k(  573) = (  -0.4999999   0.7216877   0.0000063), wk =   0.0034722
        k(  574) = (  -0.4999999   0.7216877  -0.0637190), wk =   0.0034722
        k(  575) = (  -0.4999998   0.7698002   0.0000039), wk =   0.0034722
        k(  576) = (  -0.4999998   0.7698002  -0.0637213), wk =   0.0034722
        k(  577) = (  -0.4999998   0.8179127   0.0000016), wk =   0.0034722
        k(  578) = (  -0.4999998   0.8179127  -0.0637236), wk =   0.0034722
        k(  579) = (  -0.5000001  -0.2886751   0.0000546), wk =   0.0017361
        k(  580) = (  -0.5000001  -0.2886751  -0.0636706), wk =   0.0017361

                       cryst. coord.
        k(    1) = (   0.0000000   0.0000000   0.0000000), wk =   0.0017361
        k(    2) = (   0.0000000   0.0000000  -0.5000000), wk =   0.0017361
        k(    3) = (   0.0000000   0.0416667   0.0000000), wk =   0.0034722
        k(    4) = (   0.0000000   0.0416667  -0.5000000), wk =   0.0034722
        k(    5) = (   0.0000000   0.0833333   0.0000000), wk =   0.0034722
        k(    6) = (   0.0000000   0.0833333  -0.5000000), wk =   0.0034722
        k(    7) = (   0.0000000   0.1250000   0.0000000), wk =   0.0034722
        k(    8) = (   0.0000000   0.1250000  -0.5000000), wk =   0.0034722
        k(    9) = (   0.0000000   0.1666667   0.0000000), wk =   0.0034722
        k(   10) = (   0.0000000   0.1666667  -0.5000000), wk =   0.0034722
        k(   11) = (   0.0000000   0.2083333  -0.0000000), wk =   0.0034722
        k(   12) = (   0.0000000   0.2083333  -0.5000000), wk =   0.0034722
        k(   13) = (   0.0000000   0.2500000   0.0000000), wk =   0.0034722
        k(   14) = (   0.0000000   0.2500000  -0.5000000), wk =   0.0034722
        k(   15) = (   0.0000000   0.2916667  -0.0000000), wk =   0.0034722
        k(   16) = (   0.0000000   0.2916667  -0.5000000), wk =   0.0034722
        k(   17) = (   0.0000000   0.3333333   0.0000000), wk =   0.0034722
        k(   18) = (   0.0000000   0.3333333  -0.5000000), wk =   0.0034722
        k(   19) = (   0.0000000   0.3750000   0.0000000), wk =   0.0034722
        k(   20) = (   0.0000000   0.3750000  -0.5000000), wk =   0.0034722
        k(   21) = (   0.0000000   0.4166667  -0.0000000), wk =   0.0034722
        k(   22) = (   0.0000000   0.4166667  -0.5000000), wk =   0.0034722
        k(   23) = (   0.0000000   0.4583333  -0.0000000), wk =   0.0034722
        k(   24) = (   0.0000000   0.4583333  -0.5000000), wk =   0.0034722
        k(   25) = (  -0.0000000  -0.5000000   0.0000000), wk =   0.0017361
        k(   26) = (  -0.0000000  -0.5000000  -0.5000000), wk =   0.0017361
        k(   27) = (   0.0416667   0.0000000   0.0000000), wk =   0.0034722
        k(   28) = (   0.0416667   0.0000000  -0.5000000), wk =   0.0034722
        k(   29) = (   0.0416667   0.0416667   0.0000000), wk =   0.0034722
        k(   30) = (   0.0416667   0.0416667  -0.5000000), wk =   0.0034722
        k(   31) = (   0.0416667   0.0833333   0.0000000), wk =   0.0034722
        k(   32) = (   0.0416667   0.0833333  -0.5000000), wk =   0.0034722
        k(   33) = (   0.0416667   0.1250000  -0.0000000), wk =   0.0034722
        k(   34) = (   0.0416667   0.1250000  -0.5000000), wk =   0.0034722
        k(   35) = (   0.0416667   0.1666667   0.0000000), wk =   0.0034722
        k(   36) = (   0.0416667   0.1666667  -0.5000000), wk =   0.0034722
        k(   37) = (   0.0416667   0.2083333  -0.0000000), wk =   0.0034722
        k(   38) = (   0.0416667   0.2083333  -0.5000000), wk =   0.0034722
        k(   39) = (   0.0416667   0.2500000   0.0000000), wk =   0.0034722
        k(   40) = (   0.0416667   0.2500000  -0.5000000), wk =   0.0034722
        k(   41) = (   0.0416667   0.2916667   0.0000000), wk =   0.0034722
        k(   42) = (   0.0416667   0.2916667  -0.5000000), wk =   0.0034722
        k(   43) = (   0.0416667   0.3333333   0.0000000), wk =   0.0034722
        k(   44) = (   0.0416667   0.3333333  -0.5000000), wk =   0.0034722
        k(   45) = (   0.0416667   0.3750000   0.0000000), wk =   0.0034722
        k(   46) = (   0.0416667   0.3750000  -0.5000000), wk =   0.0034722
        k(   47) = (   0.0416667   0.4166667  -0.0000000), wk =   0.0034722
        k(   48) = (   0.0416667   0.4166667  -0.5000000), wk =   0.0034722
        k(   49) = (   0.0416667   0.4583333   0.0000000), wk =   0.0034722
        k(   50) = (   0.0416667   0.4583333  -0.5000000), wk =   0.0034722
        k(   51) = (   0.0416667  -0.5000000   0.0000000), wk =   0.0034722
        k(   52) = (   0.0416667  -0.5000000  -0.5000000), wk =   0.0034722
        k(   53) = (   0.0416667  -0.4583333   0.0000000), wk =   0.0034722
        k(   54) = (   0.0416667  -0.4583333  -0.5000000), wk =   0.0034722
        k(   55) = (   0.0416667  -0.4166667   0.0000000), wk =   0.0034722
        k(   56) = (   0.0416667  -0.4166667  -0.5000000), wk =   0.0034722
        k(   57) = (   0.0416667  -0.3750000   0.0000000), wk =   0.0034722
        k(   58) = (   0.0416667  -0.3750000  -0.5000000), wk =   0.0034722
        k(   59) = (   0.0416667  -0.3333333   0.0000000), wk =   0.0034722
        k(   60) = (   0.0416667  -0.3333333  -0.5000000), wk =   0.0034722
        k(   61) = (   0.0416667  -0.2916667   0.0000000), wk =   0.0034722
        k(   62) = (   0.0416667  -0.2916667  -0.5000000), wk =   0.0034722
        k(   63) = (   0.0416667  -0.2500000   0.0000000), wk =   0.0034722
        k(   64) = (   0.0416667  -0.2500000  -0.5000000), wk =   0.0034722
        k(   65) = (   0.0416667  -0.2083333   0.0000000), wk =   0.0034722
        k(   66) = (   0.0416667  -0.2083333  -0.5000000), wk =   0.0034722
        k(   67) = (   0.0416667  -0.1666667   0.0000000), wk =   0.0034722
        k(   68) = (   0.0416667  -0.1666667  -0.5000000), wk =   0.0034722
        k(   69) = (   0.0416667  -0.1250000   0.0000000), wk =   0.0034722
        k(   70) = (   0.0416667  -0.1250000  -0.5000000), wk =   0.0034722
        k(   71) = (   0.0416667  -0.0833333   0.0000000), wk =   0.0034722
        k(   72) = (   0.0416667  -0.0833333  -0.5000000), wk =   0.0034722
        k(   73) = (   0.0416667  -0.0416667   0.0000000), wk =   0.0034722
        k(   74) = (   0.0416667  -0.0416667  -0.5000000), wk =   0.0034722
        k(   75) = (   0.0833333   0.0000000   0.0000000), wk =   0.0034722
        k(   76) = (   0.0833333   0.0000000  -0.5000000), wk =   0.0034722
        k(   77) = (   0.0833333   0.0416667   0.0000000), wk =   0.0034722
        k(   78) = (   0.0833333   0.0416667  -0.5000000), wk =   0.0034722
        k(   79) = (   0.0833333   0.0833333   0.0000000), wk =   0.0034722
        k(   80) = (   0.0833333   0.0833333  -0.5000000), wk =   0.0034722
        k(   81) = (   0.0833333   0.1250000   0.0000000), wk =   0.0034722
        k(   82) = (   0.0833333   0.1250000  -0.5000000), wk =   0.0034722
        k(   83) = (   0.0833333   0.1666667   0.0000000), wk =   0.0034722
        k(   84) = (   0.0833333   0.1666667  -0.5000000), wk =   0.0034722
        k(   85) = (   0.0833333   0.2083333   0.0000000), wk =   0.0034722
        k(   86) = (   0.0833333   0.2083333  -0.5000000), wk =   0.0034722
        k(   87) = (   0.0833333   0.2500000  -0.0000000), wk =   0.0034722
        k(   88) = (   0.0833333   0.2500000  -0.5000000), wk =   0.0034722
        k(   89) = (   0.0833333   0.2916667   0.0000000), wk =   0.0034722
        k(   90) = (   0.0833333   0.2916667  -0.5000000), wk =   0.0034722
        k(   91) = (   0.0833333   0.3333333   0.0000000), wk =   0.0034722
        k(   92) = (   0.0833333   0.3333333  -0.5000000), wk =   0.0034722
        k(   93) = (   0.0833333   0.3750000   0.0000000), wk =   0.0034722
        k(   94) = (   0.0833333   0.3750000  -0.5000000), wk =   0.0034722
        k(   95) = (   0.0833333   0.4166667  -0.0000000), wk =   0.0034722
        k(   96) = (   0.0833333   0.4166667  -0.5000000), wk =   0.0034722
        k(   97) = (   0.0833333   0.4583333   0.0000000), wk =   0.0034722
        k(   98) = (   0.0833333   0.4583333  -0.5000000), wk =   0.0034722
        k(   99) = (   0.0833333  -0.5000000   0.0000000), wk =   0.0034722
        k(  100) = (   0.0833333  -0.5000000  -0.5000000), wk =   0.0034722
        k(  101) = (   0.0833333  -0.4583333   0.0000000), wk =   0.0034722
        k(  102) = (   0.0833333  -0.4583333  -0.5000000), wk =   0.0034722
        k(  103) = (   0.0833333  -0.4166667   0.0000000), wk =   0.0034722
        k(  104) = (   0.0833333  -0.4166667  -0.5000000), wk =   0.0034722
        k(  105) = (   0.0833333  -0.3750000   0.0000000), wk =   0.0034722
        k(  106) = (   0.0833333  -0.3750000  -0.5000000), wk =   0.0034722
        k(  107) = (   0.0833333  -0.3333333   0.0000000), wk =   0.0034722
        k(  108) = (   0.0833333  -0.3333333  -0.5000000), wk =   0.0034722
        k(  109) = (   0.0833333  -0.2916667   0.0000000), wk =   0.0034722
        k(  110) = (   0.0833333  -0.2916667  -0.5000000), wk =   0.0034722
        k(  111) = (   0.0833333  -0.2500000   0.0000000), wk =   0.0034722
        k(  112) = (   0.0833333  -0.2500000  -0.5000000), wk =   0.0034722
        k(  113) = (   0.0833333  -0.2083333   0.0000000), wk =   0.0034722
        k(  114) = (   0.0833333  -0.2083333  -0.5000000), wk =   0.0034722
        k(  115) = (   0.0833333  -0.1666667   0.0000000), wk =   0.0034722
        k(  116) = (   0.0833333  -0.1666667  -0.5000000), wk =   0.0034722
        k(  117) = (   0.0833333  -0.1250000   0.0000000), wk =   0.0034722
        k(  118) = (   0.0833333  -0.1250000  -0.5000000), wk =   0.0034722
        k(  119) = (   0.0833333  -0.0833333   0.0000000), wk =   0.0034722
        k(  120) = (   0.0833333  -0.0833333  -0.5000000), wk =   0.0034722
        k(  121) = (   0.0833333  -0.0416667   0.0000000), wk =   0.0034722
        k(  122) = (   0.0833333  -0.0416667  -0.5000000), wk =   0.0034722
        k(  123) = (   0.1250000   0.0000000   0.0000000), wk =   0.0034722
        k(  124) = (   0.1250000   0.0000000  -0.5000000), wk =   0.0034722
        k(  125) = (   0.1250000   0.0416667   0.0000000), wk =   0.0034722
        k(  126) = (   0.1250000   0.0416667  -0.5000000), wk =   0.0034722
        k(  127) = (   0.1250000   0.0833333   0.0000000), wk =   0.0034722
        k(  128) = (   0.1250000   0.0833333  -0.5000000), wk =   0.0034722
        k(  129) = (   0.1250000   0.1250000   0.0000000), wk =   0.0034722
        k(  130) = (   0.1250000   0.1250000  -0.5000000), wk =   0.0034722
        k(  131) = (   0.1250000   0.1666667   0.0000000), wk =   0.0034722
        k(  132) = (   0.1250000   0.1666667  -0.5000000), wk =   0.0034722
        k(  133) = (   0.1250000   0.2083333   0.0000000), wk =   0.0034722
        k(  134) = (   0.1250000   0.2083333  -0.5000000), wk =   0.0034722
        k(  135) = (   0.1250000   0.2500000   0.0000000), wk =   0.0034722
        k(  136) = (   0.1250000   0.2500000  -0.5000000), wk =   0.0034722
        k(  137) = (   0.1250000   0.2916667   0.0000000), wk =   0.0034722
        k(  138) = (   0.1250000   0.2916667  -0.5000000), wk =   0.0034722
        k(  139) = (   0.1250000   0.3333333   0.0000000), wk =   0.0034722
        k(  140) = (   0.1250000   0.3333333  -0.5000000), wk =   0.0034722
        k(  141) = (   0.1250000   0.3750000   0.0000000), wk =   0.0034722
        k(  142) = (   0.1250000   0.3750000  -0.5000000), wk =   0.0034722
        k(  143) = (   0.1250000   0.4166667  -0.0000000), wk =   0.0034722
        k(  144) = (   0.1250000   0.4166667  -0.5000000), wk =   0.0034722
        k(  145) = (   0.1250000   0.4583333   0.0000000), wk =   0.0034722
        k(  146) = (   0.1250000   0.4583333  -0.5000000), wk =   0.0034722
        k(  147) = (   0.1250000  -0.5000000   0.0000000), wk =   0.0034722
        k(  148) = (   0.1250000  -0.5000000  -0.5000000), wk =   0.0034722
        k(  149) = (   0.1250000  -0.4583333   0.0000000), wk =   0.0034722
        k(  150) = (   0.1250000  -0.4583333  -0.5000000), wk =   0.0034722
        k(  151) = (   0.1250000  -0.4166667   0.0000000), wk =   0.0034722
        k(  152) = (   0.1250000  -0.4166667  -0.5000000), wk =   0.0034722
        k(  153) = (   0.1250000  -0.3750000   0.0000000), wk =   0.0034722
        k(  154) = (   0.1250000  -0.3750000  -0.5000000), wk =   0.0034722
        k(  155) = (   0.1250000  -0.3333333   0.0000000), wk =   0.0034722
        k(  156) = (   0.1250000  -0.3333333  -0.5000000), wk =   0.0034722
        k(  157) = (   0.1250000  -0.2916667   0.0000000), wk =   0.0034722
        k(  158) = (   0.1250000  -0.2916667  -0.5000000), wk =   0.0034722
        k(  159) = (   0.1250000  -0.2500000   0.0000000), wk =   0.0034722
        k(  160) = (   0.1250000  -0.2500000  -0.5000000), wk =   0.0034722
        k(  161) = (   0.1250000  -0.2083333   0.0000000), wk =   0.0034722
        k(  162) = (   0.1250000  -0.2083333  -0.5000000), wk =   0.0034722
        k(  163) = (   0.1250000  -0.1666667   0.0000000), wk =   0.0034722
        k(  164) = (   0.1250000  -0.1666667  -0.5000000), wk =   0.0034722
        k(  165) = (   0.1250000  -0.1250000   0.0000000), wk =   0.0034722
        k(  166) = (   0.1250000  -0.1250000  -0.5000000), wk =   0.0034722
        k(  167) = (   0.1250000  -0.0833333   0.0000000), wk =   0.0034722
        k(  168) = (   0.1250000  -0.0833333  -0.5000000), wk =   0.0034722
        k(  169) = (   0.1250000  -0.0416667   0.0000000), wk =   0.0034722
        k(  170) = (   0.1250000  -0.0416667  -0.5000000), wk =   0.0034722
        k(  171) = (   0.1666667   0.0000000   0.0000000), wk =   0.0034722
        k(  172) = (   0.1666667   0.0000000  -0.5000000), wk =   0.0034722
        k(  173) = (   0.1666667   0.0416667   0.0000000), wk =   0.0034722
        k(  174) = (   0.1666667   0.0416667  -0.5000000), wk =   0.0034722
        k(  175) = (   0.1666667   0.0833333   0.0000000), wk =   0.0034722
        k(  176) = (   0.1666667   0.0833333  -0.5000000), wk =   0.0034722
        k(  177) = (   0.1666667   0.1250000   0.0000000), wk =   0.0034722
        k(  178) = (   0.1666667   0.1250000  -0.5000000), wk =   0.0034722
        k(  179) = (   0.1666667   0.1666667   0.0000000), wk =   0.0034722
        k(  180) = (   0.1666667   0.1666667  -0.5000000), wk =   0.0034722
        k(  181) = (   0.1666667   0.2083333   0.0000000), wk =   0.0034722
        k(  182) = (   0.1666667   0.2083333  -0.5000000), wk =   0.0034722
        k(  183) = (   0.1666667   0.2500000   0.0000000), wk =   0.0034722
        k(  184) = (   0.1666667   0.2500000  -0.5000000), wk =   0.0034722
        k(  185) = (   0.1666667   0.2916667   0.0000000), wk =   0.0034722
        k(  186) = (   0.1666667   0.2916667  -0.5000000), wk =   0.0034722
        k(  187) = (   0.1666667   0.3333333   0.0000000), wk =   0.0034722
        k(  188) = (   0.1666667   0.3333333  -0.5000000), wk =   0.0034722
        k(  189) = (   0.1666667   0.3750000   0.0000000), wk =   0.0034722
        k(  190) = (   0.1666667   0.3750000  -0.5000000), wk =   0.0034722
        k(  191) = (   0.1666667   0.4166667   0.0000000), wk =   0.0034722
        k(  192) = (   0.1666667   0.4166667  -0.5000000), wk =   0.0034722
        k(  193) = (   0.1666667   0.4583333   0.0000000), wk =   0.0034722
        k(  194) = (   0.1666667   0.4583333  -0.5000000), wk =   0.0034722
        k(  195) = (   0.1666667  -0.5000000   0.0000000), wk =   0.0034722
        k(  196) = (   0.1666667  -0.5000000  -0.5000000), wk =   0.0034722
        k(  197) = (   0.1666667  -0.4583333   0.0000000), wk =   0.0034722
        k(  198) = (   0.1666667  -0.4583333  -0.5000000), wk =   0.0034722
        k(  199) = (   0.1666667  -0.4166667   0.0000000), wk =   0.0034722
        k(  200) = (   0.1666667  -0.4166667  -0.5000000), wk =   0.0034722
        k(  201) = (   0.1666667  -0.3750000   0.0000000), wk =   0.0034722
        k(  202) = (   0.1666667  -0.3750000  -0.5000000), wk =   0.0034722
        k(  203) = (   0.1666667  -0.3333333   0.0000000), wk =   0.0034722
        k(  204) = (   0.1666667  -0.3333333  -0.5000000), wk =   0.0034722
        k(  205) = (   0.1666667  -0.2916667   0.0000000), wk =   0.0034722
        k(  206) = (   0.1666667  -0.2916667  -0.5000000), wk =   0.0034722
        k(  207) = (   0.1666667  -0.2500000   0.0000000), wk =   0.0034722
        k(  208) = (   0.1666667  -0.2500000  -0.5000000), wk =   0.0034722
        k(  209) = (   0.1666667  -0.2083333   0.0000000), wk =   0.0034722
        k(  210) = (   0.1666667  -0.2083333  -0.5000000), wk =   0.0034722
        k(  211) = (   0.1666667  -0.1666667   0.0000000), wk =   0.0034722
        k(  212) = (   0.1666667  -0.1666667  -0.5000000), wk =   0.0034722
        k(  213) = (   0.1666667  -0.1250000   0.0000000), wk =   0.0034722
        k(  214) = (   0.1666667  -0.1250000  -0.5000000), wk =   0.0034722
        k(  215) = (   0.1666667  -0.0833333   0.0000000), wk =   0.0034722
        k(  216) = (   0.1666667  -0.0833333  -0.5000000), wk =   0.0034722
        k(  217) = (   0.1666667  -0.0416667   0.0000000), wk =   0.0034722
        k(  218) = (   0.1666667  -0.0416667  -0.5000000), wk =   0.0034722
        k(  219) = (   0.2083333   0.0000000   0.0000000), wk =   0.0034722
        k(  220) = (   0.2083333   0.0000000  -0.5000000), wk =   0.0034722
        k(  221) = (   0.2083333   0.0416667   0.0000000), wk =   0.0034722
        k(  222) = (   0.2083333   0.0416667  -0.5000000), wk =   0.0034722
        k(  223) = (   0.2083333   0.0833333   0.0000000), wk =   0.0034722
        k(  224) = (   0.2083333   0.0833333  -0.5000000), wk =   0.0034722
        k(  225) = (   0.2083333   0.1250000   0.0000000), wk =   0.0034722
        k(  226) = (   0.2083333   0.1250000  -0.5000000), wk =   0.0034722
        k(  227) = (   0.2083333   0.1666667   0.0000000), wk =   0.0034722
        k(  228) = (   0.2083333   0.1666667  -0.5000000), wk =   0.0034722
        k(  229) = (   0.2083333   0.2083333   0.0000000), wk =   0.0034722
        k(  230) = (   0.2083333   0.2083333  -0.5000000), wk =   0.0034722
        k(  231) = (   0.2083333   0.2500000   0.0000000), wk =   0.0034722
        k(  232) = (   0.2083333   0.2500000  -0.5000000), wk =   0.0034722
        k(  233) = (   0.2083333   0.2916667   0.0000000), wk =   0.0034722
        k(  234) = (   0.2083333   0.2916667  -0.5000000), wk =   0.0034722
        k(  235) = (   0.2083333   0.3333333   0.0000000), wk =   0.0034722
        k(  236) = (   0.2083333   0.3333333  -0.5000000), wk =   0.0034722
        k(  237) = (   0.2083333   0.3750000   0.0000000), wk =   0.0034722
        k(  238) = (   0.2083333   0.3750000  -0.5000000), wk =   0.0034722
        k(  239) = (   0.2083333   0.4166667  -0.0000000), wk =   0.0034722
        k(  240) = (   0.2083333   0.4166667  -0.5000000), wk =   0.0034722
        k(  241) = (   0.2083333   0.4583333   0.0000000), wk =   0.0034722
        k(  242) = (   0.2083333   0.4583333  -0.5000000), wk =   0.0034722
        k(  243) = (   0.2083333  -0.5000000   0.0000000), wk =   0.0034722
        k(  244) = (   0.2083333  -0.5000000  -0.5000000), wk =   0.0034722
        k(  245) = (   0.2083333  -0.4583333   0.0000000), wk =   0.0034722
        k(  246) = (   0.2083333  -0.4583333  -0.5000000), wk =   0.0034722
        k(  247) = (   0.2083333  -0.4166667   0.0000000), wk =   0.0034722
        k(  248) = (   0.2083333  -0.4166667  -0.5000000), wk =   0.0034722
        k(  249) = (   0.2083333  -0.3750000   0.0000000), wk =   0.0034722
        k(  250) = (   0.2083333  -0.3750000  -0.5000000), wk =   0.0034722
        k(  251) = (   0.2083333  -0.3333333   0.0000000), wk =   0.0034722
        k(  252) = (   0.2083333  -0.3333333  -0.5000000), wk =   0.0034722
        k(  253) = (   0.2083333  -0.2916667   0.0000000), wk =   0.0034722
        k(  254) = (   0.2083333  -0.2916667  -0.5000000), wk =   0.0034722
        k(  255) = (   0.2083333  -0.2500000   0.0000000), wk =   0.0034722
        k(  256) = (   0.2083333  -0.2500000  -0.5000000), wk =   0.0034722
        k(  257) = (   0.2083333  -0.2083333   0.0000000), wk =   0.0034722
        k(  258) = (   0.2083333  -0.2083333  -0.5000000), wk =   0.0034722
        k(  259) = (   0.2083333  -0.1666667   0.0000000), wk =   0.0034722
        k(  260) = (   0.2083333  -0.1666667  -0.5000000), wk =   0.0034722
        k(  261) = (   0.2083333  -0.1250000   0.0000000), wk =   0.0034722
        k(  262) = (   0.2083333  -0.1250000  -0.5000000), wk =   0.0034722
        k(  263) = (   0.2083333  -0.0833333   0.0000000), wk =   0.0034722
        k(  264) = (   0.2083333  -0.0833333  -0.5000000), wk =   0.0034722
        k(  265) = (   0.2083333  -0.0416667   0.0000000), wk =   0.0034722
        k(  266) = (   0.2083333  -0.0416667  -0.5000000), wk =   0.0034722
        k(  267) = (   0.2500000   0.0000000   0.0000000), wk =   0.0034722
        k(  268) = (   0.2500000   0.0000000  -0.5000000), wk =   0.0034722
        k(  269) = (   0.2500000   0.0416667   0.0000000), wk =   0.0034722
        k(  270) = (   0.2500000   0.0416667  -0.5000000), wk =   0.0034722
        k(  271) = (   0.2500000   0.0833333   0.0000000), wk =   0.0034722
        k(  272) = (   0.2500000   0.0833333  -0.5000000), wk =   0.0034722
        k(  273) = (   0.2500000   0.1250000   0.0000000), wk =   0.0034722
        k(  274) = (   0.2500000   0.1250000  -0.5000000), wk =   0.0034722
        k(  275) = (   0.2500000   0.1666667   0.0000000), wk =   0.0034722
        k(  276) = (   0.2500000   0.1666667  -0.5000000), wk =   0.0034722
        k(  277) = (   0.2500000   0.2083333   0.0000000), wk =   0.0034722
        k(  278) = (   0.2500000   0.2083333  -0.5000000), wk =   0.0034722
        k(  279) = (   0.2500000   0.2500000   0.0000000), wk =   0.0034722
        k(  280) = (   0.2500000   0.2500000  -0.5000000), wk =   0.0034722
        k(  281) = (   0.2500000   0.2916667   0.0000000), wk =   0.0034722
        k(  282) = (   0.2500000   0.2916667  -0.5000000), wk =   0.0034722
        k(  283) = (   0.2500000   0.3333333   0.0000000), wk =   0.0034722
        k(  284) = (   0.2500000   0.3333333  -0.5000000), wk =   0.0034722
        k(  285) = (   0.2500000   0.3750000   0.0000000), wk =   0.0034722
        k(  286) = (   0.2500000   0.3750000  -0.5000000), wk =   0.0034722
        k(  287) = (   0.2500000   0.4166667   0.0000000), wk =   0.0034722
        k(  288) = (   0.2500000   0.4166667  -0.5000000), wk =   0.0034722
        k(  289) = (   0.2500000   0.4583333   0.0000000), wk =   0.0034722
        k(  290) = (   0.2500000   0.4583333  -0.5000000), wk =   0.0034722
        k(  291) = (   0.2500000  -0.5000000   0.0000000), wk =   0.0034722
        k(  292) = (   0.2500000  -0.5000000  -0.5000000), wk =   0.0034722
        k(  293) = (   0.2500000  -0.4583333   0.0000000), wk =   0.0034722
        k(  294) = (   0.2500000  -0.4583333  -0.5000000), wk =   0.0034722
        k(  295) = (   0.2500000  -0.4166667   0.0000000), wk =   0.0034722
        k(  296) = (   0.2500000  -0.4166667  -0.5000000), wk =   0.0034722
        k(  297) = (   0.2500000  -0.3750000   0.0000000), wk =   0.0034722
        k(  298) = (   0.2500000  -0.3750000  -0.5000000), wk =   0.0034722
        k(  299) = (   0.2500000  -0.3333333   0.0000000), wk =   0.0034722
        k(  300) = (   0.2500000  -0.3333333  -0.5000000), wk =   0.0034722
        k(  301) = (   0.2500000  -0.2916667   0.0000000), wk =   0.0034722
        k(  302) = (   0.2500000  -0.2916667  -0.5000000), wk =   0.0034722
        k(  303) = (   0.2500000  -0.2500000   0.0000000), wk =   0.0034722
        k(  304) = (   0.2500000  -0.2500000  -0.5000000), wk =   0.0034722
        k(  305) = (   0.2500000  -0.2083333   0.0000000), wk =   0.0034722
        k(  306) = (   0.2500000  -0.2083333  -0.5000000), wk =   0.0034722
        k(  307) = (   0.2500000  -0.1666667   0.0000000), wk =   0.0034722
        k(  308) = (   0.2500000  -0.1666667  -0.5000000), wk =   0.0034722
        k(  309) = (   0.2500000  -0.1250000   0.0000000), wk =   0.0034722
        k(  310) = (   0.2500000  -0.1250000  -0.5000000), wk =   0.0034722
        k(  311) = (   0.2500000  -0.0833333   0.0000000), wk =   0.0034722
        k(  312) = (   0.2500000  -0.0833333  -0.5000000), wk =   0.0034722
        k(  313) = (   0.2500000  -0.0416667   0.0000000), wk =   0.0034722
        k(  314) = (   0.2500000  -0.0416667  -0.5000000), wk =   0.0034722
        k(  315) = (   0.2916667   0.0000000   0.0000000), wk =   0.0034722
        k(  316) = (   0.2916667   0.0000000  -0.5000000), wk =   0.0034722
        k(  317) = (   0.2916667   0.0416667   0.0000000), wk =   0.0034722
        k(  318) = (   0.2916667   0.0416667  -0.5000000), wk =   0.0034722
        k(  319) = (   0.2916667   0.0833333   0.0000000), wk =   0.0034722
        k(  320) = (   0.2916667   0.0833333  -0.5000000), wk =   0.0034722
        k(  321) = (   0.2916667   0.1250000   0.0000000), wk =   0.0034722
        k(  322) = (   0.2916667   0.1250000  -0.5000000), wk =   0.0034722
        k(  323) = (   0.2916667   0.1666667   0.0000000), wk =   0.0034722
        k(  324) = (   0.2916667   0.1666667  -0.5000000), wk =   0.0034722
        k(  325) = (   0.2916667   0.2083333   0.0000000), wk =   0.0034722
        k(  326) = (   0.2916667   0.2083333  -0.5000000), wk =   0.0034722
        k(  327) = (   0.2916667   0.2500000   0.0000000), wk =   0.0034722
        k(  328) = (   0.2916667   0.2500000  -0.5000000), wk =   0.0034722
        k(  329) = (   0.2916667   0.2916667  -0.0000000), wk =   0.0034722
        k(  330) = (   0.2916667   0.2916667  -0.5000000), wk =   0.0034722
        k(  331) = (   0.2916667   0.3333333   0.0000000), wk =   0.0034722
        k(  332) = (   0.2916667   0.3333333  -0.5000000), wk =   0.0034722
        k(  333) = (   0.2916667   0.3750000   0.0000000), wk =   0.0034722
        k(  334) = (   0.2916667   0.3750000  -0.5000000), wk =   0.0034722
        k(  335) = (   0.2916667   0.4166667  -0.0000000), wk =   0.0034722
        k(  336) = (   0.2916667   0.4166667  -0.5000000), wk =   0.0034722
        k(  337) = (   0.2916667   0.4583333   0.0000000), wk =   0.0034722
        k(  338) = (   0.2916667   0.4583333  -0.5000000), wk =   0.0034722
        k(  339) = (   0.2916667  -0.5000000   0.0000000), wk =   0.0034722
        k(  340) = (   0.2916667  -0.5000000  -0.5000000), wk =   0.0034722
        k(  341) = (   0.2916667  -0.4583333   0.0000000), wk =   0.0034722
        k(  342) = (   0.2916667  -0.4583333  -0.5000000), wk =   0.0034722
        k(  343) = (   0.2916667  -0.4166667   0.0000000), wk =   0.0034722
        k(  344) = (   0.2916667  -0.4166667  -0.5000000), wk =   0.0034722
        k(  345) = (   0.2916667  -0.3750000   0.0000000), wk =   0.0034722
        k(  346) = (   0.2916667  -0.3750000  -0.5000000), wk =   0.0034722
        k(  347) = (   0.2916667  -0.3333333   0.0000000), wk =   0.0034722
        k(  348) = (   0.2916667  -0.3333333  -0.5000000), wk =   0.0034722
        k(  349) = (   0.2916667  -0.2916667   0.0000000), wk =   0.0034722
        k(  350) = (   0.2916667  -0.2916667  -0.5000000), wk =   0.0034722
        k(  351) = (   0.2916667  -0.2500000   0.0000000), wk =   0.0034722
        k(  352) = (   0.2916667  -0.2500000  -0.5000000), wk =   0.0034722
        k(  353) = (   0.2916667  -0.2083333   0.0000000), wk =   0.0034722
        k(  354) = (   0.2916667  -0.2083333  -0.5000000), wk =   0.0034722
        k(  355) = (   0.2916667  -0.1666667   0.0000000), wk =   0.0034722
        k(  356) = (   0.2916667  -0.1666667  -0.5000000), wk =   0.0034722
        k(  357) = (   0.2916667  -0.1250000   0.0000000), wk =   0.0034722
        k(  358) = (   0.2916667  -0.1250000  -0.5000000), wk =   0.0034722
        k(  359) = (   0.2916667  -0.0833333   0.0000000), wk =   0.0034722
        k(  360) = (   0.2916667  -0.0833333  -0.5000000), wk =   0.0034722
        k(  361) = (   0.2916667  -0.0416667   0.0000000), wk =   0.0034722
        k(  362) = (   0.2916667  -0.0416667  -0.5000000), wk =   0.0034722
        k(  363) = (   0.3333333   0.0000000   0.0000000), wk =   0.0034722
        k(  364) = (   0.3333333   0.0000000  -0.5000000), wk =   0.0034722
        k(  365) = (   0.3333333   0.0416667   0.0000000), wk =   0.0034722
        k(  366) = (   0.3333333   0.0416667  -0.5000000), wk =   0.0034722
        k(  367) = (   0.3333333   0.0833333   0.0000000), wk =   0.0034722
        k(  368) = (   0.3333333   0.0833333  -0.5000000), wk =   0.0034722
        k(  369) = (   0.3333333   0.1250000   0.0000000), wk =   0.0034722
        k(  370) = (   0.3333333   0.1250000  -0.5000000), wk =   0.0034722
        k(  371) = (   0.3333333   0.1666667   0.0000000), wk =   0.0034722
        k(  372) = (   0.3333333   0.1666667  -0.5000000), wk =   0.0034722
        k(  373) = (   0.3333333   0.2083333   0.0000000), wk =   0.0034722
        k(  374) = (   0.3333333   0.2083333  -0.5000000), wk =   0.0034722
        k(  375) = (   0.3333333   0.2500000   0.0000000), wk =   0.0034722
        k(  376) = (   0.3333333   0.2500000  -0.5000000), wk =   0.0034722
        k(  377) = (   0.3333333   0.2916667   0.0000000), wk =   0.0034722
        k(  378) = (   0.3333333   0.2916667  -0.5000000), wk =   0.0034722
        k(  379) = (   0.3333333   0.3333333   0.0000000), wk =   0.0034722
        k(  380) = (   0.3333333   0.3333333  -0.5000000), wk =   0.0034722
        k(  381) = (   0.3333333   0.3750000   0.0000000), wk =   0.0034722
        k(  382) = (   0.3333333   0.3750000  -0.5000000), wk =   0.0034722
        k(  383) = (   0.3333333   0.4166667   0.0000000), wk =   0.0034722
        k(  384) = (   0.3333333   0.4166667  -0.5000000), wk =   0.0034722
        k(  385) = (   0.3333333   0.4583333   0.0000000), wk =   0.0034722
        k(  386) = (   0.3333333   0.4583333  -0.5000000), wk =   0.0034722
        k(  387) = (   0.3333333  -0.5000000   0.0000000), wk =   0.0034722
        k(  388) = (   0.3333333  -0.5000000  -0.5000000), wk =   0.0034722
        k(  389) = (   0.3333333  -0.4583333   0.0000000), wk =   0.0034722
        k(  390) = (   0.3333333  -0.4583333  -0.5000000), wk =   0.0034722
        k(  391) = (   0.3333333  -0.4166667   0.0000000), wk =   0.0034722
        k(  392) = (   0.3333333  -0.4166667  -0.5000000), wk =   0.0034722
        k(  393) = (   0.3333333  -0.3750000   0.0000000), wk =   0.0034722
        k(  394) = (   0.3333333  -0.3750000  -0.5000000), wk =   0.0034722
        k(  395) = (   0.3333333  -0.3333333   0.0000000), wk =   0.0034722
        k(  396) = (   0.3333333  -0.3333333  -0.5000000), wk =   0.0034722
        k(  397) = (   0.3333333  -0.2916667   0.0000000), wk =   0.0034722
        k(  398) = (   0.3333333  -0.2916667  -0.5000000), wk =   0.0034722
[...]
     0.0000   0.0000   0.0000   0.0000   0.0000   0.0000   0.0000   0.0000
     0.0000   0.0000   0.0000   0.0000   0.0000   0.0000

          k =-0.5000 0.2887 0.0000 (  3866 PWs)   bands (ev):

   -26.1910 -26.1829 -16.9857 -15.4450 -13.9828 -13.2175  -9.7878  -9.2164
    -8.1340  -7.7678  -7.0668  -6.7901  -5.2327  -4.4556  -3.6403   2.9299
     3.9969   5.1746   7.9780   8.1788   8.8618  12.0184  12.7653  12.8966
    12.9014  13.0422  13.1841  13.1997  13.7916  13.9072

     occupation numbers 
     1.0000   1.0000   1.0000   1.0000   1.0000   1.0000   1.0000   1.0000
     1.0000   1.0000   1.0000   1.0000   1.0000   1.0000   1.0000   0.0000
     0.0000   0.0000   0.0000   0.0000   0.0000   0.0000   0.0000   0.0000
     0.0000   0.0000   0.0000   0.0000   0.0000   0.0000

          k =-0.5000 0.2887-0.0637 (  3856 PWs)   bands (ev):

   -26.1910 -26.1829 -16.9857 -15.4450 -13.9828 -13.2175  -9.7878  -9.2164
    -8.1340  -7.7678  -7.0668  -6.7901  -5.2327  -4.4556  -3.6403   2.9299
     3.9970   5.1746   7.9780   8.1787   8.8619  12.0197  12.7637  12.8966
    12.9091  12.9778  13.1500  13.3580  13.7187  13.8874

     occupation numbers 
     1.0000   1.0000   1.0000   1.0000   1.0000   1.0000   1.0000   1.0000
     1.0000   1.0000   1.0000   1.0000   1.0000   1.0000   1.0000   0.0000
     0.0000   0.0000   0.0000   0.0000   0.0000   0.0000   0.0000   0.0000
     0.0000   0.0000   0.0000   0.0000   0.0000   0.0000

          k =-0.5000 0.3368 0.0000 (  3872 PWs)   bands (ev):

   -26.1916 -26.1834 -17.0620 -15.3212 -14.0630 -13.0684  -9.7996  -9.2028
    -8.2629  -7.7642  -7.1787  -6.7374  -5.2551  -4.4723  -3.7124   3.1260
     4.0681   5.3253   7.9402   8.1995   8.8278  12.0324  12.3780  12.5346
    12.6784  13.0987  13.3278  13.6199  13.7852  14.2248

     occupation numbers 
     1.0000   1.0000   1.0000   1.0000   1.0000   1.0000   1.0000   1.0000
     1.0000   1.0000   1.0000   1.0000   1.0000   1.0000   1.0000   0.0000
     0.0000   0.0000   0.0000   0.0000   0.0000   0.0000   0.0000   0.0000
     0.0000   0.0000   0.0000   0.0000   0.0000   0.0000

          k =-0.5000 0.3368-0.0637 (  3867 PWs)   bands (ev):

   -26.1916 -26.1834 -17.0620 -15.3212 -14.0630 -13.0683  -9.7996  -9.2028
    -8.2629  -7.7642  -7.1787  -6.7374  -5.2551  -4.4723  -3.7124   3.1260
     4.0682   5.3253   7.9403   8.1996   8.8278  12.0441  12.3391  12.5121
    12.7551  13.1355  13.2536  13.5766  13.8397  14.2344

     occupation numbers 
     1.0000   1.0000   1.0000   1.0000   1.0000   1.0000   1.0000   1.0000
     1.0000   1.0000   1.0000   1.0000   1.0000   1.0000   1.0000   0.0000
     0.0000   0.0000   0.0000   0.0000   0.0000   0.0000   0.0000   0.0000
     0.0000   0.0000   0.0000   0.0000   0.0000   0.0000

          k =-0.5000 0.3849 0.0000 (  3882 PWs)   bands (ev):

   -26.1935 -26.1849 -17.2300 -15.0428 -14.1624 -12.7384  -9.8316  -9.1873
    -8.5964  -7.7745  -7.4345  -6.6283  -5.3199  -4.5066  -3.9079   3.6260
     4.2915   5.7561   7.8662   8.1434   8.8794  11.7903  12.0765  12.2463
    12.3131  12.8406  13.1646  13.8004  14.3886  14.4920

     occupation numbers 
     1.0000   1.0000   1.0000   1.0000   1.0000   1.0000   1.0000   1.0000
     1.0000   1.0000   1.0000   1.0000   1.0000   1.0000   1.0000   0.0000
     0.0000   0.0000   0.0000   0.0000   0.0000   0.0000   0.0000   0.0000
     0.0000   0.0000   0.0000   0.0000   0.0000   0.0000

          k =-0.5000 0.3849-0.0637 (  3874 PWs)   bands (ev):

   -26.1935 -26.1849 -17.2299 -15.0428 -14.1623 -12.7384  -9.8316  -9.1873
    -8.5964  -7.7745  -7.4345  -6.6283  -5.3199  -4.5066  -3.9079   3.6260
     4.2915   5.7561   7.8662   8.1434   8.8794  11.8420  11.9465  12.2454
    12.4643  12.7743  13.1288  13.8364  14.3874  14.4929

     occupation numbers 
     1.0000   1.0000   1.0000   1.0000   1.0000   1.0000   1.0000   1.0000
     1.0000   1.0000   1.0000   1.0000   1.0000   1.0000   1.0000   0.0000
     0.0000   0.0000   0.0000   0.0000   0.0000   0.0000   0.0000   0.0000
     0.0000   0.0000   0.0000   0.0000   0.0000   0.0000

          k =-0.5000 0.4330 0.0000 (  3873 PWs)   bands (ev):

   -26.1960 -26.1869 -17.4058 -14.8385 -14.0485 -12.3487  -9.8823  -9.3138
    -8.9284  -7.9461  -7.6130  -6.4936  -5.4062  -4.5369  -4.1791   4.1128
     4.7982   6.3818   7.6232   8.2370   9.1063  11.4233  11.7253  11.8697
    12.1991  12.5503  12.7600  13.5058  14.7939  15.2100

     occupation numbers 
     1.0000   1.0000   1.0000   1.0000   1.0000   1.0000   1.0000   1.0000
     1.0000   1.0000   1.0000   1.0000   1.0000   1.0000   1.0000   0.0000
     0.0000   0.0000   0.0000   0.0000   0.0000   0.0000   0.0000   0.0000
     0.0000   0.0000   0.0000   0.0000   0.0000   0.0000

          k =-0.5000 0.4330-0.0637 (  3870 PWs)   bands (ev):

   -26.1960 -26.1869 -17.4058 -14.8385 -14.0485 -12.3487  -9.8823  -9.3138
    -8.9284  -7.9461  -7.6130  -6.4936  -5.4062  -4.5369  -4.1791   4.1128
     4.7982   6.3818   7.6233   8.2370   9.1063  11.4733  11.5868  11.9631
    12.2932  12.4463  12.7400  13.5344  14.7933  15.2033

     occupation numbers 
     1.0000   1.0000   1.0000   1.0000   1.0000   1.0000   1.0000   1.0000
     1.0000   1.0000   1.0000   1.0000   1.0000   1.0000   1.0000   0.0000
     0.0000   0.0000   0.0000   0.0000   0.0000   0.0000   0.0000   0.0000
     0.0000   0.0000   0.0000   0.0000   0.0000   0.0000

          k =-0.5000 0.4811 0.0000 (  3870 PWs)   bands (ev):

   -26.1985 -26.1889 -17.5471 -14.8269 -13.6408 -11.9943  -9.9844  -9.6521
    -9.0945  -8.2623  -7.6116  -6.3671  -5.4572  -4.5953  -4.4428   4.4109
     5.4802   7.0105   7.4189   8.6862   9.4276  11.0682  11.4114  11.5508
    11.8272  12.0759  12.2825  13.2768  14.6219  15.8122

     occupation numbers 
     1.0000   1.0000   1.0000   1.0000   1.0000   1.0000   1.0000   1.0000
     1.0000   1.0000   1.0000   1.0000   1.0000   1.0000   1.0000   0.0000
     0.0000   0.0000   0.0000   0.0000   0.0000   0.0000   0.0000   0.0000
     0.0000   0.0000   0.0000   0.0000   0.0000   0.0000

          k =-0.5000 0.4811-0.0637 (  3882 PWs)   bands (ev):

   -26.1985 -26.1889 -17.5471 -14.8269 -13.6408 -11.9943  -9.9844  -9.6521
    -9.0945  -8.2623  -7.6116  -6.3671  -5.4572  -4.5953  -4.4428   4.4109
     5.4802   7.0105   7.4189   8.6862   9.4276  11.1014  11.2875  11.6639
    11.8589  12.0686  12.2213  13.2889  14.6419  15.8627

     occupation numbers 
     1.0000   1.0000   1.0000   1.0000   1.0000   1.0000   1.0000   1.0000
     1.0000   1.0000   1.0000   1.0000   1.0000   1.0000   1.0000   0.0000
     0.0000   0.0000   0.0000   0.0000   0.0000   0.0000   0.0000   0.0000
     0.0000   0.0000   0.0000   0.0000   0.0000   0.0000

          k =-0.5000 0.5292 0.0000 (  3863 PWs)   bands (ev):

   -26.2004 -26.1904 -17.6365 -14.8642 -13.1576 -11.8387 -10.1042  -9.8224
    -9.3647  -8.4308  -7.5831  -6.2961  -5.4040  -4.8329  -4.5091   4.6190
     5.8878   6.9526   8.1906   9.4379   9.7871  10.5763  10.9408  11.1940
    11.3894  11.4131  12.1147  13.1381  14.4935  15.8749

     occupation numbers 
     1.0000   1.0000   1.0000   1.0000   1.0000   1.0000   1.0000   1.0000
     1.0000   1.0000   1.0000   1.0000   1.0000   1.0000   1.0000   0.0000
     0.0000   0.0000   0.0000   0.0000   0.0000   0.0000   0.0000   0.0000
     0.0000   0.0000   0.0000   0.0000   0.0000   0.0000

          k =-0.5000 0.5292-0.0637 (  3864 PWs)   bands (ev):

   -26.2004 -26.1904 -17.6365 -14.8642 -13.1577 -11.8387 -10.1042  -9.8224
    -9.3647  -8.4308  -7.5831  -6.2961  -5.4040  -4.8329  -4.5091   4.6189
     5.8878   6.9526   8.1906   9.4379   9.7872  10.5817  10.9376  11.1441
    11.3726  11.5122  12.0694  13.1436  14.5216  15.8387

     occupation numbers 
     1.0000   1.0000   1.0000   1.0000   1.0000   1.0000   1.0000   1.0000
     1.0000   1.0000   1.0000   1.0000   1.0000   1.0000   1.0000   0.0000
     0.0000   0.0000   0.0000   0.0000   0.0000   0.0000   0.0000   0.0000
     0.0000   0.0000   0.0000   0.0000   0.0000   0.0000

          k =-0.5000 0.5774 0.0000 (  3885 PWs)   bands (ev):

   -26.2010 -26.1910 -17.6669 -14.8809 -12.8970 -11.8828  -9.9987  -9.9500
    -9.5548  -8.4660  -7.5692  -6.2805  -5.3089  -5.0049  -4.5143   4.7035
     5.9810   6.8815   9.0525   9.7351  10.0499  10.1279  10.6047  10.7448
    11.1382  11.3518  12.0640  13.0918  14.4502  15.8693

     occupation numbers 
     1.0000   1.0000   1.0000   1.0000   1.0000   1.0000   1.0000   1.0000
     1.0000   1.0000   1.0000   1.0000   1.0000   1.0000   1.0000   0.0000
     0.0000   0.0000   0.0000   0.0000   0.0000   0.0000   0.0000   0.0000
     0.0000   0.0000   0.0000   0.0000   0.0000   0.0000

          k =-0.5000 0.5774-0.0637 (  3859 PWs)   bands (ev):

   -26.2010 -26.1910 -17.6669 -14.8809 -12.8970 -11.8828  -9.9987  -9.9500
    -9.5548  -8.4660  -7.5692  -6.2805  -5.3089  -5.0049  -4.5143   4.7036
     5.9811   6.8816   9.0525   9.7351  10.0495  10.1293  10.6118  10.7393
    11.0844  11.4354  12.0219  13.0964  14.4801  15.8080

     occupation numbers 
     1.0000   1.0000   1.0000   1.0000   1.0000   1.0000   1.0000   1.0000
     1.0000   1.0000   1.0000   1.0000   1.0000   1.0000   1.0000   0.0000
     0.0000   0.0000   0.0000   0.0000   0.0000   0.0000   0.0000   0.0000
     0.0000   0.0000   0.0000   0.0000   0.0000   0.0000

          k =-0.5000 0.6255 0.0000 (  3863 PWs)   bands (ev):

   -26.2004 -26.1904 -17.6365 -14.8642 -13.1576 -11.8387 -10.1042  -9.8224
    -9.3647  -8.4308  -7.5831  -6.2961  -5.4040  -4.8329  -4.5091   4.6189
     5.8878   6.9527   8.1906   9.4379   9.7871  10.5762  10.9408  11.1942
    11.3892  11.4131  12.1147  13.1381  14.4935  15.8749

     occupation numbers 
     1.0000   1.0000   1.0000   1.0000   1.0000   1.0000   1.0000   1.0000
     1.0000   1.0000   1.0000   1.0000   1.0000   1.0000   1.0000   0.0000
     0.0000   0.0000   0.0000   0.0000   0.0000   0.0000   0.0000   0.0000
     0.0000   0.0000   0.0000   0.0000   0.0000   0.0000

          k =-0.5000 0.6255-0.0637 (  3864 PWs)   bands (ev):

   -26.2004 -26.1904 -17.6365 -14.8642 -13.1576 -11.8387 -10.1042  -9.8224
    -9.3647  -8.4308  -7.5831  -6.2961  -5.4040  -4.8329  -4.5091   4.6189
     5.8878   6.9527   8.1906   9.4379   9.7872  10.5817  10.9376  11.1440
    11.3726  11.5123  12.0694  13.1436  14.5216  15.8388

     occupation numbers 
     1.0000   1.0000   1.0000   1.0000   1.0000   1.0000   1.0000   1.0000
     1.0000   1.0000   1.0000   1.0000   1.0000   1.0000   1.0000   0.0000
     0.0000   0.0000   0.0000   0.0000   0.0000   0.0000   0.0000   0.0000
     0.0000   0.0000   0.0000   0.0000   0.0000   0.0000

          k =-0.5000 0.6736 0.0000 (  3870 PWs)   bands (ev):

   -26.1985 -26.1889 -17.5471 -14.8269 -13.6408 -11.9943  -9.9844  -9.6521
    -9.0945  -8.2623  -7.6117  -6.3671  -5.4572  -4.5953  -4.4428   4.4109
     5.4802   7.0106   7.4189   8.6862   9.4276  11.0682  11.4117  11.5505
    11.8272  12.0759  12.2825  13.2769  14.6219  15.8122

     occupation numbers 
     1.0000   1.0000   1.0000   1.0000   1.0000   1.0000   1.0000   1.0000
     1.0000   1.0000   1.0000   1.0000   1.0000   1.0000   1.0000   0.0000
     0.0000   0.0000   0.0000   0.0000   0.0000   0.0000   0.0000   0.0000
     0.0000   0.0000   0.0000   0.0000   0.0000   0.0000

          k =-0.5000 0.6736-0.0637 (  3882 PWs)   bands (ev):

   -26.1985 -26.1889 -17.5471 -14.8269 -13.6408 -11.9943  -9.9844  -9.6521
    -9.0945  -8.2623  -7.6117  -6.3671  -5.4572  -4.5953  -4.4428   4.4109
     5.4802   7.0106   7.4189   8.6862   9.4276  11.1014  11.2873  11.6640
    11.8588  12.0686  12.2213  13.2888  14.6419  15.8628

     occupation numbers 
     1.0000   1.0000   1.0000   1.0000   1.0000   1.0000   1.0000   1.0000
     1.0000   1.0000   1.0000   1.0000   1.0000   1.0000   1.0000   0.0000
     0.0000   0.0000   0.0000   0.0000   0.0000   0.0000   0.0000   0.0000
     0.0000   0.0000   0.0000   0.0000   0.0000   0.0000

          k =-0.5000 0.7217 0.0000 (  3873 PWs)   bands (ev):

   -26.1960 -26.1869 -17.4058 -14.8385 -14.0485 -12.3487  -9.8823  -9.3138
    -8.9284  -7.9462  -7.6130  -6.4936  -5.4062  -4.5369  -4.1791   4.1127
     4.7982   6.3818   7.6233   8.2371   9.1063  11.4233  11.7256  11.8694
    12.1991  12.5504  12.7600  13.5059  14.7939  15.2101

     occupation numbers 
     1.0000   1.0000   1.0000   1.0000   1.0000   1.0000   1.0000   1.0000
     1.0000   1.0000   1.0000   1.0000   1.0000   1.0000   1.0000   0.0000
     0.0000   0.0000   0.0000   0.0000   0.0000   0.0000   0.0000   0.0000
     0.0000   0.0000   0.0000   0.0000   0.0000   0.0000

          k =-0.5000 0.7217-0.0637 (  3870 PWs)   bands (ev):

   -26.1960 -26.1869 -17.4058 -14.8385 -14.0485 -12.3487  -9.8823  -9.3138
    -8.9284  -7.9462  -7.6130  -6.4936  -5.4062  -4.5369  -4.1791   4.1128
     4.7982   6.3818   7.6233   8.2371   9.1063  11.4735  11.5864  11.9632
    12.2934  12.4461  12.7401  13.5343  14.7932  15.2034

     occupation numbers 
     1.0000   1.0000   1.0000   1.0000   1.0000   1.0000   1.0000   1.0000
     1.0000   1.0000   1.0000   1.0000   1.0000   1.0000   1.0000   0.0000
     0.0000   0.0000   0.0000   0.0000   0.0000   0.0000   0.0000   0.0000
     0.0000   0.0000   0.0000   0.0000   0.0000   0.0000

          k =-0.5000 0.7698 0.0000 (  3882 PWs)   bands (ev):

   -26.1935 -26.1849 -17.2299 -15.0428 -14.1623 -12.7384  -9.8316  -9.1873
    -8.5964  -7.7745  -7.4345  -6.6283  -5.3199  -4.5066  -3.9079   3.6260
     4.2914   5.7561   7.8662   8.1435   8.8794  11.7903  12.0768  12.2464
    12.3129  12.8407  13.1645  13.8004  14.3883  14.4925

     occupation numbers 
     1.0000   1.0000   1.0000   1.0000   1.0000   1.0000   1.0000   1.0000
     1.0000   1.0000   1.0000   1.0000   1.0000   1.0000   1.0000   0.0000
     0.0000   0.0000   0.0000   0.0000   0.0000   0.0000   0.0000   0.0000
     0.0000   0.0000   0.0000   0.0000   0.0000   0.0000

          k =-0.5000 0.7698-0.0637 (  3874 PWs)   bands (ev):

   -26.1935 -26.1849 -17.2299 -15.0428 -14.1623 -12.7384  -9.8316  -9.1873
    -8.5964  -7.7745  -7.4345  -6.6283  -5.3199  -4.5066  -3.9079   3.6260
     4.2914   5.7561   7.8663   8.1435   8.8794  11.8422  11.9462  12.2454
    12.4644  12.7741  13.1289  13.8364  14.3872  14.4931

     occupation numbers 
     1.0000   1.0000   1.0000   1.0000   1.0000   1.0000   1.0000   1.0000
     1.0000   1.0000   1.0000   1.0000   1.0000   1.0000   1.0000   0.0000
     0.0000   0.0000   0.0000   0.0000   0.0000   0.0000   0.0000   0.0000
     0.0000   0.0000   0.0000   0.0000   0.0000   0.0000

          k =-0.5000 0.8179 0.0000 (  3872 PWs)   bands (ev):

   -26.1917 -26.1834 -17.0620 -15.3212 -14.0629 -13.0684  -9.7996  -9.2028
    -8.2630  -7.7642  -7.1787  -6.7374  -5.2551  -4.4723  -3.7124   3.1260
     4.0680   5.3253   7.9403   8.1995   8.8278  12.0324  12.3781  12.5345
    12.6783  13.0988  13.3277  13.6200  13.7850  14.2252

     occupation numbers 
     1.0000   1.0000   1.0000   1.0000   1.0000   1.0000   1.0000   1.0000
     1.0000   1.0000   1.0000   1.0000   1.0000   1.0000   1.0000   0.0000
     0.0000   0.0000   0.0000   0.0000   0.0000   0.0000   0.0000   0.0000
     0.0000   0.0000   0.0000   0.0000   0.0000   0.0000

          k =-0.5000 0.8179-0.0637 (  3867 PWs)   bands (ev):

   -26.1916 -26.1834 -17.0620 -15.3212 -14.0629 -13.0684  -9.7996  -9.2028
    -8.2630  -7.7642  -7.1787  -6.7374  -5.2551  -4.4723  -3.7124   3.1260
     4.0681   5.3253   7.9403   8.1996   8.8278  12.0441  12.3390  12.5121
    12.7552  13.1352  13.2539  13.5767  13.8394  14.2347

     occupation numbers 
     1.0000   1.0000   1.0000   1.0000   1.0000   1.0000   1.0000   1.0000
     1.0000   1.0000   1.0000   1.0000   1.0000   1.0000   1.0000   0.0000
     0.0000   0.0000   0.0000   0.0000   0.0000   0.0000   0.0000   0.0000
     0.0000   0.0000   0.0000   0.0000   0.0000   0.0000

          k =-0.5000-0.2887 0.0001 (  3866 PWs)   bands (ev):

   -26.1910 -26.1829 -16.9857 -15.4450 -13.9828 -13.2176  -9.7877  -9.2164
    -8.1340  -7.7678  -7.0668  -6.7901  -5.2327  -4.4556  -3.6403   2.9299
     3.9968   5.1746   7.9781   8.1787   8.8618  12.0184  12.7654  12.8967
    12.9012  13.0418  13.1841  13.2002  13.7909  13.9077

     occupation numbers 
     1.0000   1.0000   1.0000   1.0000   1.0000   1.0000   1.0000   1.0000
     1.0000   1.0000   1.0000   1.0000   1.0000   1.0000   1.0000   0.0000
     0.0000   0.0000   0.0000   0.0000   0.0000   0.0000   0.0000   0.0000
     0.0000   0.0000   0.0000   0.0000   0.0000   0.0000

          k =-0.5000-0.2887-0.0637 (  3856 PWs)   bands (ev):

   -26.1910 -26.1829 -16.9857 -15.4450 -13.9828 -13.2176  -9.7877  -9.2164
    -8.1340  -7.7678  -7.0668  -6.7900  -5.2327  -4.4556  -3.6403   2.9298
     3.9969   5.1746   7.9781   8.1787   8.8619  12.0197  12.7635  12.8967
    12.9093  12.9779  13.1496  13.3583  13.7182  13.8880

     occupation numbers 
     1.0000   1.0000   1.0000   1.0000   1.0000   1.0000   1.0000   1.0000
     1.0000   1.0000   1.0000   1.0000   1.0000   1.0000   1.0000   0.0000
     0.0000   0.0000   0.0000   0.0000   0.0000   0.0000   0.0000   0.0000
     0.0000   0.0000   0.0000   0.0000   0.0000   0.0000

     the Fermi energy is    -0.0604 ev

     Writing output data file pwscf.save\

     init_run     :     10.53s CPU      9.54s WALL (       1 calls)
     electrons    :   1190.97s CPU    756.35s WALL (       1 calls)

     Called by init_run:
     wfcinit      :      0.00s CPU      0.00s WALL (       1 calls)
     wfcinit:atom :      3.05s CPU      1.94s WALL (     580 calls)
     wfcinit:wfcr :     73.17s CPU     46.96s WALL (     580 calls)
     potinit      :      0.66s CPU      0.38s WALL (       1 calls)
     hinit0       :      9.69s CPU      8.92s WALL (       1 calls)

     Called by electrons:
     c_bands      :   1190.88s CPU    756.30s WALL (       1 calls)
     v_of_rho     :      0.28s CPU      0.11s WALL (       1 calls)
     v_h          :      0.00s CPU      0.01s WALL (       1 calls)
     v_xc         :      0.28s CPU      0.10s WALL (       1 calls)
     newd         :      0.16s CPU      0.11s WALL (       1 calls)
     PAW_pot      :      0.38s CPU      0.25s WALL (       1 calls)

     Called by c_bands:
     init_us_2    :      0.72s CPU      0.62s WALL (     580 calls)
     cegterg      :   1102.28s CPU    698.10s WALL (     803 calls)

     Called by sum_band:

     Called by *egterg:
     h_psi        :    866.30s CPU    526.72s WALL (   13647 calls)
     s_psi        :     22.28s CPU     22.90s WALL (   13647 calls)
     g_psi        :      5.58s CPU      3.32s WALL (   12264 calls)
     cdiaghg      :     55.78s CPU     40.79s WALL (   12844 calls)
     cegterg:over :     69.91s CPU     47.54s WALL (   12264 calls)
     cegterg:upda :     80.61s CPU     50.29s WALL (   12264 calls)
     cegterg:last :     58.03s CPU     36.44s WALL (    2537 calls)

     Called by h_psi:
     h_psi:pot    :    858.12s CPU    518.08s WALL (   13647 calls)
     h_psi:calbec :     22.56s CPU     18.65s WALL (   13647 calls)
     vloc_psi     :    825.38s CPU    486.38s WALL (   13647 calls)
     add_vuspsi   :     10.05s CPU     12.97s WALL (   13647 calls)

     General routines
     calbec       :     22.53s CPU     18.63s WALL (   13647 calls)
     fft          :      0.00s CPU      0.02s WALL (      13 calls)
     ffts         :      0.00s CPU      0.00s WALL (       1 calls)
     fftw         :    506.52s CPU    271.56s WALL (  432602 calls)
     interpolate  :      0.00s CPU      0.01s WALL (       1 calls)
     davcio       :      1.78s CPU      6.37s WALL (    1160 calls)

     Parallel routines

     PAW routines
     PAW_pot      :      0.38s CPU      0.25s WALL (       1 calls)

     PWSCF        :  20m 4.80s CPU  13m26.94s WALL


   This run was terminated on:  15:15:25  22Nov2024            

=------------------------------------------------------------------------------=
   JOB DONE.
=------------------------------------------------------------------------------=
