
     Program PWSCF v.6.4.1 starts on 22Nov2024 at 14:45: 9 

     This program is part of the open-source Quantum ESPRESSO suite
     for quantum simulation of materials; please cite
         "P. Giannozzi et al., J. Phys.:Condens. Matter 21 395502 (2009);
         "P. Giannozzi et al., J. Phys.:Condens. Matter 29 465901 (2017);
          URL http://www.quantum-espresso.org", 
     in publications or presentations arising from this work. More details at
     http://www.quantum-espresso.org/quote

     Parallel version (MPI & OpenMP), running on      12 processor cores
     Number of MPI processes:                 1
     Threads/MPI process:                    12

     MPI processes distributed on     1 nodes
     Waiting for input...
     Reading input from standard input
Warning: card &IONS ignored
Warning: card ION_DYNAMICS = 'BFGS' ignored
Warning: card / ignored
Warning: card &CELL ignored
Warning: card CELL_DOFREE = 'ALL' ignored
Warning: card CELL_DYNAMICS = 'BFGS' ignored
Warning: card PRESS = 0.0 ignored
Warning: card PRESS_CONV_THR = 0.5 ignored
Warning: card / ignored

     Current dimensions of program PWSCF are:
     Max number of different atomic species (ntypx) = 10
     Max number of k-points (npk) =  40000
     Max angular momentum in pseudopotentials (lmaxx) =  3
               file C.pbesol-n-kjpaw_psl.1.0.0.UPF: wavefunction(s)  2S 2P renormalized
               file F.pbesol-n-kjpaw_psl.1.0.0.UPF: wavefunction(s)  2S 2P renormalized

     Subspace diagonalization in iterative solution of the eigenvalue problem:
     a serial algorithm will be used


     G-vector sticks info
     --------------------
     sticks:   dense  smooth     PW     G-vecs:    dense   smooth      PW
     Sum         583     295     97                87545    30857    6239



     bravais-lattice index     =            0
     lattice parameter (alat)  =       4.8113  a.u.
     unit-cell volume          =     756.7755 (a.u.)^3
     number of atoms/cell      =            6
     number of atomic types    =            2
     number of electrons       =        30.00
     number of Kohn-Sham states=           19
     kinetic-energy cutoff     =      45.0000  Ry
     charge density cutoff     =     360.0000  Ry
     convergence threshold     =      1.0E-06
     mixing beta               =       0.7000
     number of iterations used =            8  plain     mixing
     Exchange-correlation      = SLA PW PSX PSC ( 1  4 10  8 0 0)

     celldm(1)=   4.811264  celldm(2)=   0.000000  celldm(3)=   0.000000
     celldm(4)=   0.000000  celldm(5)=   0.000000  celldm(6)=   0.000000

     crystal axes: (cart. coord. in units of alat)
               a(1) = (   1.000000  -0.000000   0.000000 )  
               a(2) = (   0.500000   0.866025   0.000000 )  
               a(3) = (   0.000640   0.000376   7.846189 )  

     reciprocal axes: (cart. coord. in units 2 pi/alat)
               b(1) = (  1.000000 -0.577350 -0.000054 )  
               b(2) = (  0.000000  1.154700 -0.000055 )  
               b(3) = ( -0.000000  0.000000  0.127450 )  


     PseudoPot. # 1 for C  read from file:
     .\C.pbesol-n-kjpaw_psl.1.0.0.UPF
     MD5 check sum: f9b2fe17d1f478429498b05d17159f9e
     Pseudo is Projector augmented-wave + core cor, Zval =  4.0
     Generated using "atomic" code by A. Dal Corso v.6.3
     Shape of augmentation charge: PSQ
     Using radial grid of 1073 points,  4 beta functions with: 
                l(1) =   0
                l(2) =   0
                l(3) =   1
                l(4) =   1
     Q(r) pseudized with 0 coefficients 


     PseudoPot. # 2 for F  read from file:
     .\F.pbesol-n-kjpaw_psl.1.0.0.UPF
     MD5 check sum: d939582bcd23f1ece12cfc4fab8d9d36
     Pseudo is Projector augmented-wave + core cor, Zval =  7.0
     Generated using "atomic" code by A. Dal Corso v.6.3
     Shape of augmentation charge: PSQ
     Using radial grid of 1105 points,  4 beta functions with: 
                l(1) =   0
                l(2) =   0
                l(3) =   1
                l(4) =   1
     Q(r) pseudized with 0 coefficients 


     atomic species   valence    mass     pseudopotential
        C              4.00    12.01070     C ( 1.00)
        F              7.00    18.99840     F ( 1.00)

     No symmetry found


                                    s                        frac. trans.

      isym =  1     identity                                     

 cryst.   s( 1) = (     1          0          0      )
                  (     0          1          0      )
                  (     0          0          1      )

 cart.    s( 1) = (  1.0000000  0.0000000  0.0000000 )
                  (  0.0000000  1.0000000  0.0000000 )
                  (  0.0000000  0.0000000  1.0000000 )


   Cartesian axes

     site n.     atom                  positions (alat units)
         1           C   tau(   1) = (   0.0003519   0.0002070   3.9499945  )
         2           C   tau(   2) = (   0.5003526   0.2888824   4.1475548  )
         3           C   tau(   3) = (   1.0003489   0.5775541   4.9554475  )
         4           C   tau(   4) = (   0.5003487   0.2888789   4.7578829  )
         5           F   tau(   5) = (   0.0003452   0.0002019   3.4086906  )
         6           F   tau(   6) = (   1.0003517   0.5775569   5.4967546  )

   Crystallographic axes

     site n.     atom                  positions (cryst. coord.)
         1           C   tau(   1) = (  0.0000192  0.0000206  0.5034284  )
         2           C   tau(   2) = (  0.3333424  0.3333434  0.5286075  )
         3           C   tau(   3) = (  0.6666304  0.6666281  0.6315738  )
         4           C   tau(   4) = (  0.3333076  0.3333056  0.6063941  )
         5           F   tau(   5) = (  0.0000446  0.0000447  0.4344390  )
         6           F   tau(   6) = (  0.6666024  0.6666014  0.7005636  )

     number of k points=    74  Marzari-Vanderbilt smearing, width (Ry)=  0.0200
                       cart. coord. in units 2pi/alat
        k(    1) = (   0.0000000   0.0000000   0.0000000), wk =   0.0138889
        k(    2) = (   0.0000000   0.0962250  -0.0000046), wk =   0.0277778
        k(    3) = (   0.0000000   0.1924501  -0.0000092), wk =   0.0277778
        k(    4) = (   0.0000001   0.2886751  -0.0000138), wk =   0.0277778
        k(    5) = (   0.0000001   0.3849001  -0.0000184), wk =   0.0277778
        k(    6) = (   0.0000001   0.4811251  -0.0000230), wk =   0.0277778
        k(    7) = (  -0.0000001  -0.5773502   0.0000276), wk =   0.0138889
        k(    8) = (   0.0833333  -0.0481125  -0.0000045), wk =   0.0277778
        k(    9) = (   0.0833333   0.0481125  -0.0000091), wk =   0.0277778
        k(   10) = (   0.0833334   0.1443375  -0.0000137), wk =   0.0277778
        k(   11) = (   0.0833334   0.2405626  -0.0000183), wk =   0.0277778
        k(   12) = (   0.0833334   0.3367876  -0.0000229), wk =   0.0277778
        k(   13) = (   0.0833334   0.4330126  -0.0000275), wk =   0.0277778
        k(   14) = (   0.0833332  -0.6254627   0.0000231), wk =   0.0277778
        k(   15) = (   0.0833332  -0.5292376   0.0000185), wk =   0.0277778
        k(   16) = (   0.0833332  -0.4330126   0.0000139), wk =   0.0277778
        k(   17) = (   0.0833333  -0.3367876   0.0000093), wk =   0.0277778
        k(   18) = (   0.0833333  -0.2405626   0.0000047), wk =   0.0277778
        k(   19) = (   0.0833333  -0.1443375   0.0000001), wk =   0.0277778
        k(   20) = (   0.1666666  -0.0962250  -0.0000090), wk =   0.0277778
        k(   21) = (   0.1666667   0.0000000  -0.0000136), wk =   0.0277778
        k(   22) = (   0.1666667   0.0962250  -0.0000182), wk =   0.0277778
        k(   23) = (   0.1666667   0.1924501  -0.0000228), wk =   0.0277778
        k(   24) = (   0.1666667   0.2886751  -0.0000274), wk =   0.0277778
        k(   25) = (   0.1666667   0.3849001  -0.0000320), wk =   0.0277778
        k(   26) = (   0.1666665  -0.6735752   0.0000187), wk =   0.0277778
        k(   27) = (   0.1666665  -0.5773501   0.0000140), wk =   0.0277778
        k(   28) = (   0.1666666  -0.4811251   0.0000094), wk =   0.0277778
        k(   29) = (   0.1666666  -0.3849001   0.0000048), wk =   0.0277778
        k(   30) = (   0.1666666  -0.2886751   0.0000002), wk =   0.0277778
        k(   31) = (   0.1666666  -0.1924500  -0.0000044), wk =   0.0277778
        k(   32) = (   0.2500000  -0.1443375  -0.0000135), wk =   0.0277778
        k(   33) = (   0.2500000  -0.0481125  -0.0000181), wk =   0.0277778
        k(   34) = (   0.2500000   0.0481125  -0.0000227), wk =   0.0277778
        k(   35) = (   0.2500000   0.1443376  -0.0000273), wk =   0.0277778
        k(   36) = (   0.2500000   0.2405626  -0.0000319), wk =   0.0277778
        k(   37) = (   0.2500001   0.3367876  -0.0000365), wk =   0.0277778
        k(   38) = (   0.2499999  -0.7216877   0.0000142), wk =   0.0277778
        k(   39) = (   0.2499999  -0.6254626   0.0000095), wk =   0.0277778
        k(   40) = (   0.2499999  -0.5292376   0.0000049), wk =   0.0277778
        k(   41) = (   0.2499999  -0.4330126   0.0000003), wk =   0.0277778
        k(   42) = (   0.2499999  -0.3367876  -0.0000043), wk =   0.0277778
        k(   43) = (   0.2500000  -0.2405625  -0.0000089), wk =   0.0277778
        k(   44) = (   0.3333333  -0.1924500  -0.0000180), wk =   0.0277778
        k(   45) = (   0.3333333  -0.0962250  -0.0000226), wk =   0.0277778
        k(   46) = (   0.3333333   0.0000000  -0.0000272), wk =   0.0277778
        k(   47) = (   0.3333334   0.0962251  -0.0000318), wk =   0.0277778
        k(   48) = (   0.3333334   0.1924501  -0.0000364), wk =   0.0277778
        k(   49) = (   0.3333334   0.2886751  -0.0000410), wk =   0.0277778
        k(   50) = (   0.3333332  -0.7698002   0.0000097), wk =   0.0277778
        k(   51) = (   0.3333332  -0.6735752   0.0000050), wk =   0.0277778
        k(   52) = (   0.3333332  -0.5773501   0.0000004), wk =   0.0277778
        k(   53) = (   0.3333332  -0.4811251  -0.0000042), wk =   0.0277778
        k(   54) = (   0.3333333  -0.3849001  -0.0000088), wk =   0.0277778
        k(   55) = (   0.3333333  -0.2886751  -0.0000134), wk =   0.0277778
        k(   56) = (   0.4166666  -0.2405625  -0.0000225), wk =   0.0277778
        k(   57) = (   0.4166666  -0.1443375  -0.0000271), wk =   0.0277778
        k(   58) = (   0.4166667  -0.0481125  -0.0000317), wk =   0.0277778
        k(   59) = (   0.4166667   0.0481125  -0.0000363), wk =   0.0277778
        k(   60) = (   0.4166667   0.1443376  -0.0000409), wk =   0.0277778
        k(   61) = (   0.4166667   0.2405626  -0.0000455), wk =   0.0277778
        k(   62) = (   0.4166665  -0.8179127   0.0000052), wk =   0.0277778
        k(   63) = (   0.4166665  -0.7216877   0.0000006), wk =   0.0277778
        k(   64) = (   0.4166665  -0.6254626  -0.0000041), wk =   0.0277778
        k(   65) = (   0.4166666  -0.5292376  -0.0000087), wk =   0.0277778
        k(   66) = (   0.4166666  -0.4330126  -0.0000133), wk =   0.0277778
        k(   67) = (   0.4166666  -0.3367876  -0.0000179), wk =   0.0277778
        k(   68) = (  -0.4999999   0.2886750   0.0000270), wk =   0.0138889
        k(   69) = (  -0.4999999   0.3849001   0.0000224), wk =   0.0277778
        k(   70) = (  -0.4999999   0.4811251   0.0000178), wk =   0.0277778
        k(   71) = (  -0.4999999   0.5773501   0.0000132), wk =   0.0277778
        k(   72) = (  -0.4999999   0.6735751   0.0000086), wk =   0.0277778
        k(   73) = (  -0.4999998   0.7698002   0.0000039), wk =   0.0277778
        k(   74) = (  -0.5000001  -0.2886751   0.0000546), wk =   0.0138889

                       cryst. coord.
        k(    1) = (   0.0000000   0.0000000   0.0000000), wk =   0.0138889
        k(    2) = (  -0.0000000   0.0833333   0.0000000), wk =   0.0277778
        k(    3) = (  -0.0000000   0.1666667   0.0000000), wk =   0.0277778
        k(    4) = (   0.0000000   0.2500000   0.0000000), wk =   0.0277778
        k(    5) = (  -0.0000000   0.3333333   0.0000000), wk =   0.0277778
        k(    6) = (   0.0000000   0.4166667   0.0000000), wk =   0.0277778
        k(    7) = (   0.0000000  -0.5000000   0.0000000), wk =   0.0138889
        k(    8) = (   0.0833333  -0.0000000   0.0000000), wk =   0.0277778
        k(    9) = (   0.0833333   0.0833333   0.0000000), wk =   0.0277778
        k(   10) = (   0.0833333   0.1666667   0.0000000), wk =   0.0277778
        k(   11) = (   0.0833333   0.2500000   0.0000000), wk =   0.0277778
        k(   12) = (   0.0833333   0.3333333   0.0000000), wk =   0.0277778
        k(   13) = (   0.0833333   0.4166667   0.0000000), wk =   0.0277778
        k(   14) = (   0.0833333  -0.5000000   0.0000000), wk =   0.0277778
        k(   15) = (   0.0833333  -0.4166667  -0.0000000), wk =   0.0277778
        k(   16) = (   0.0833333  -0.3333333   0.0000000), wk =   0.0277778
        k(   17) = (   0.0833333  -0.2500000  -0.0000000), wk =   0.0277778
        k(   18) = (   0.0833333  -0.1666667   0.0000000), wk =   0.0277778
        k(   19) = (   0.0833333  -0.0833333  -0.0000000), wk =   0.0277778
        k(   20) = (   0.1666667  -0.0000000   0.0000000), wk =   0.0277778
        k(   21) = (   0.1666667   0.0833333   0.0000000), wk =   0.0277778
        k(   22) = (   0.1666667   0.1666667   0.0000000), wk =   0.0277778
        k(   23) = (   0.1666667   0.2500000   0.0000000), wk =   0.0277778
        k(   24) = (   0.1666667   0.3333333   0.0000000), wk =   0.0277778
        k(   25) = (   0.1666667   0.4166667   0.0000000), wk =   0.0277778
        k(   26) = (   0.1666667  -0.5000000  -0.0000000), wk =   0.0277778
        k(   27) = (   0.1666667  -0.4166667  -0.0000000), wk =   0.0277778
        k(   28) = (   0.1666667  -0.3333333  -0.0000000), wk =   0.0277778
        k(   29) = (   0.1666667  -0.2500000   0.0000000), wk =   0.0277778
        k(   30) = (   0.1666667  -0.1666667   0.0000000), wk =   0.0277778
        k(   31) = (   0.1666667  -0.0833333  -0.0000000), wk =   0.0277778
        k(   32) = (   0.2500000   0.0000000  -0.0000000), wk =   0.0277778
        k(   33) = (   0.2500000   0.0833333  -0.0000000), wk =   0.0277778
        k(   34) = (   0.2500000   0.1666667   0.0000000), wk =   0.0277778
        k(   35) = (   0.2500000   0.2500000   0.0000000), wk =   0.0277778
        k(   36) = (   0.2500000   0.3333333   0.0000000), wk =   0.0277778
        k(   37) = (   0.2500000   0.4166667   0.0000000), wk =   0.0277778
        k(   38) = (   0.2500000  -0.5000000  -0.0000000), wk =   0.0277778
        k(   39) = (   0.2500000  -0.4166667  -0.0000000), wk =   0.0277778
        k(   40) = (   0.2500000  -0.3333333  -0.0000000), wk =   0.0277778
        k(   41) = (   0.2500000  -0.2500000  -0.0000000), wk =   0.0277778
        k(   42) = (   0.2500000  -0.1666667  -0.0000000), wk =   0.0277778
        k(   43) = (   0.2500000  -0.0833333  -0.0000000), wk =   0.0277778
        k(   44) = (   0.3333333  -0.0000000   0.0000000), wk =   0.0277778
        k(   45) = (   0.3333333   0.0833333  -0.0000000), wk =   0.0277778
        k(   46) = (   0.3333333   0.1666667   0.0000000), wk =   0.0277778
        k(   47) = (   0.3333333   0.2500000   0.0000000), wk =   0.0277778
        k(   48) = (   0.3333333   0.3333333   0.0000000), wk =   0.0277778
        k(   49) = (   0.3333333   0.4166667   0.0000000), wk =   0.0277778
        k(   50) = (   0.3333333  -0.5000000   0.0000000), wk =   0.0277778
        k(   51) = (   0.3333333  -0.4166667  -0.0000000), wk =   0.0277778
        k(   52) = (   0.3333333  -0.3333333  -0.0000000), wk =   0.0277778
        k(   53) = (   0.3333333  -0.2500000  -0.0000000), wk =   0.0277778
        k(   54) = (   0.3333333  -0.1666667  -0.0000000), wk =   0.0277778
        k(   55) = (   0.3333333  -0.0833333  -0.0000000), wk =   0.0277778
        k(   56) = (   0.4166667   0.0000000  -0.0000000), wk =   0.0277778
        k(   57) = (   0.4166667   0.0833333  -0.0000000), wk =   0.0277778
        k(   58) = (   0.4166667   0.1666667  -0.0000000), wk =   0.0277778
        k(   59) = (   0.4166667   0.2500000   0.0000000), wk =   0.0277778
        k(   60) = (   0.4166667   0.3333333   0.0000000), wk =   0.0277778
        k(   61) = (   0.4166667   0.4166667  -0.0000000), wk =   0.0277778
        k(   62) = (   0.4166667  -0.5000000  -0.0000000), wk =   0.0277778
        k(   63) = (   0.4166667  -0.4166667  -0.0000000), wk =   0.0277778
        k(   64) = (   0.4166667  -0.3333333  -0.0000000), wk =   0.0277778
        k(   65) = (   0.4166667  -0.2500000  -0.0000000), wk =   0.0277778
        k(   66) = (   0.4166667  -0.1666667  -0.0000000), wk =   0.0277778
        k(   67) = (   0.4166667  -0.0833333  -0.0000000), wk =   0.0277778
        k(   68) = (  -0.5000000   0.0000000   0.0000000), wk =   0.0138889
        k(   69) = (  -0.5000000   0.0833333   0.0000000), wk =   0.0277778
        k(   70) = (  -0.5000000   0.1666667   0.0000000), wk =   0.0277778
        k(   71) = (  -0.5000000   0.2500000   0.0000000), wk =   0.0277778
        k(   72) = (  -0.5000000   0.3333333   0.0000000), wk =   0.0277778
        k(   73) = (  -0.5000000   0.4166667  -0.0000000), wk =   0.0277778
        k(   74) = (  -0.5000000  -0.5000000   0.0000000), wk =   0.0138889

     Dense  grid:    87545 G-vectors     FFT dimensions: (  30,  30, 240)

     Smooth grid:    30857 G-vectors     FFT dimensions: (  24,  24, 162)

     Dynamical RAM for                 wfc:       1.12 MB

     Dynamical RAM for     wfc (w. buffer):      83.89 MB

     Dynamical RAM for           str. fact:       2.67 MB

     Dynamical RAM for           local pot:       0.00 MB

     Dynamical RAM for          nlocal pot:       2.83 MB

     Dynamical RAM for                qrad:       0.67 MB

     Dynamical RAM for          rho,v,vnew:       8.95 MB

     Dynamical RAM for               rhoin:       2.98 MB

     Dynamical RAM for            rho*nmix:      21.37 MB

     Dynamical RAM for           G-vectors:       5.24 MB

     Dynamical RAM for          h,s,v(r/c):       0.26 MB

     Dynamical RAM for          <psi|beta>:       0.01 MB

     Dynamical RAM for                 psi:       4.47 MB

     Dynamical RAM for                hpsi:       4.47 MB

     Dynamical RAM for                spsi:       4.47 MB

     Dynamical RAM for      wfcinit/wfcrot:       2.84 MB

     Dynamical RAM for           addusdens:      62.78 MB

     Dynamical RAM for          addusforce:      79.49 MB

     Dynamical RAM for         addusstress:      66.79 MB

     Estimated static dynamical RAM per process >     140.85 MB

     Estimated max dynamical RAM per process >     220.34 MB

     Check: negative core charge=   -0.000005

     Initial potential from superposition of free atoms

     starting charge   29.99983, renormalised to   30.00000

     negative rho (up, down):  4.827E-04 0.000E+00
     Starting wfcs are   24 randomized atomic wfcs
     Checking if some PAW data can be deallocated... 

     total cpu time spent up to now is       20.9 secs

     Self-consistent Calculation

     iteration #  1     ecut=    45.00 Ry     beta= 0.70
     Davidson diagonalization with overlap
     ethr =  1.00E-02,  avg # of iterations =  2.7

     negative rho (up, down):  5.663E-04 0.000E+00

     total cpu time spent up to now is       35.5 secs

     total energy              =    -189.88141718 Ry
     Harris-Foulkes estimate   =    -190.06177084 Ry
     estimated scf accuracy    <       0.33045795 Ry

     iteration #  2     ecut=    45.00 Ry     beta= 0.70
     Davidson diagonalization with overlap
     ethr =  1.10E-03,  avg # of iterations =  2.4

     negative rho (up, down):  5.941E-04 0.000E+00

     total cpu time spent up to now is       48.7 secs

     total energy              =    -189.91118189 Ry
     Harris-Foulkes estimate   =    -189.96665785 Ry
     estimated scf accuracy    <       0.08908568 Ry

     iteration #  3     ecut=    45.00 Ry     beta= 0.70
     Davidson diagonalization with overlap
     ethr =  2.97E-04,  avg # of iterations =  4.9

     negative rho (up, down):  6.022E-04 0.000E+00

     total cpu time spent up to now is       63.9 secs

     total energy              =    -189.93142594 Ry
     Harris-Foulkes estimate   =    -189.95070337 Ry
     estimated scf accuracy    <       0.03738150 Ry

     iteration #  4     ecut=    45.00 Ry     beta= 0.70
     Davidson diagonalization with overlap
     ethr =  1.25E-04,  avg # of iterations =  4.6

     negative rho (up, down):  6.034E-04 0.000E+00

     total cpu time spent up to now is       77.6 secs

     total energy              =    -189.93950650 Ry
     Harris-Foulkes estimate   =    -189.94391502 Ry
     estimated scf accuracy    <       0.01020164 Ry

     iteration #  5     ecut=    45.00 Ry     beta= 0.70
     Davidson diagonalization with overlap
     ethr =  3.40E-05,  avg # of iterations =  3.6

     negative rho (up, down):  6.067E-04 0.000E+00

     total cpu time spent up to now is       90.2 secs

     total energy              =    -189.94146202 Ry
     Harris-Foulkes estimate   =    -189.94148207 Ry
     estimated scf accuracy    <       0.00006125 Ry

     iteration #  6     ecut=    45.00 Ry     beta= 0.70
     Davidson diagonalization with overlap
     ethr =  2.04E-07,  avg # of iterations =  4.4

     negative rho (up, down):  6.079E-04 0.000E+00

     total cpu time spent up to now is      106.9 secs

     total energy              =    -189.94151397 Ry
     Harris-Foulkes estimate   =    -189.94152414 Ry
     estimated scf accuracy    <       0.00002446 Ry

     iteration #  7     ecut=    45.00 Ry     beta= 0.70
     Davidson diagonalization with overlap
     ethr =  8.15E-08,  avg # of iterations =  2.1

     negative rho (up, down):  6.084E-04 0.000E+00

     total cpu time spent up to now is      117.6 secs

     total energy              =    -189.94151517 Ry
     Harris-Foulkes estimate   =    -189.94151640 Ry
     estimated scf accuracy    <       0.00000264 Ry

     iteration #  8     ecut=    45.00 Ry     beta= 0.70
     Davidson diagonalization with overlap
     ethr =  8.80E-09,  avg # of iterations =  3.0

     negative rho (up, down):  6.085E-04 0.000E+00

     total cpu time spent up to now is      131.3 secs

     End of self-consistent calculation

          k = 0.0000 0.0000 0.0000 (  3855 PWs)   bands (ev):

   -27.2619 -27.2100 -21.5696 -18.1494 -12.1375  -9.3644  -6.1822  -5.6689
    -5.6689  -5.4016  -5.4016  -3.1469  -3.1469  -1.9126  -1.9126   1.9982
     4.5843   4.8344   4.8344

     occupation numbers 
     1.0000   1.0000   1.0000   1.0000   1.0000   1.0000   1.0000   1.0000
     1.0000   1.0000   1.0000   1.0000   1.0000   1.0000   1.0000   0.0000
     0.0000   0.0000   0.0000

          k = 0.0000 0.0962-0.0000 (  3825 PWs)   bands (ev):

   -27.1961 -27.1475 -21.4216 -18.0233 -12.0404  -9.3352  -6.5369  -6.0023
    -5.8678  -5.6841  -5.5097  -3.5936  -3.3257  -2.4478  -2.0989   2.3437
     4.4531   5.2187   5.3026

     occupation numbers 
     1.0000   1.0000   1.0000   1.0000   1.0000   1.0000   1.0000   1.0000
     1.0000   1.0000   1.0000   1.0000   1.0000   1.0000   1.0000   0.0000
     0.0000   0.0000   0.0000

          k = 0.0000 0.1925-0.0000 (  3829 PWs)   bands (ev):

   -27.0125 -26.9727 -20.9784 -17.6469 -11.7675  -9.2893  -7.7385  -7.1320
    -6.3871  -6.1305  -5.8180  -4.3042  -3.6788  -3.5805  -2.5360   2.8773
     4.2243   5.9642   6.2137

     occupation numbers 
     1.0000   1.0000   1.0000   1.0000   1.0000   1.0000   1.0000   1.0000
     1.0000   1.0000   1.0000   1.0000   1.0000   1.0000   1.0000   0.0000
     0.0000   0.0000   0.0000

          k = 0.0000 0.2887-0.0000 (  3853 PWs)   bands (ev):

   -26.7517 -26.7236 -20.2429 -17.0264 -11.4192  -9.8377  -9.1698  -8.3871
    -7.0354  -6.7625  -6.2455  -4.9772  -4.5633  -4.0039  -2.9959   2.9865
     4.2776   6.0084   7.0306

     occupation numbers 
     1.0000   1.0000   1.0000   1.0000   1.0000   1.0000   1.0000   1.0000
     1.0000   1.0000   1.0000   1.0000   1.0000   1.0000   1.0000   0.0000
     0.0000   0.0000   0.0000

          k = 0.0000 0.3849-0.0000 (  3877 PWs)   bands (ev):

   -26.4779 -26.4614 -19.2253 -16.1771 -12.1647 -10.8185 -10.1957  -8.8300
    -7.6154  -7.3585  -6.6651  -5.9040  -4.9321  -4.2495  -3.3517   2.8452
     4.4666   5.7019   7.3609

     occupation numbers 
     1.0000   1.0000   1.0000   1.0000   1.0000   1.0000   1.0000   1.0000
     1.0000   1.0000   1.0000   1.0000   1.0000   1.0000   1.0000   0.0000
     0.0000   0.0000   0.0000

          k = 0.0000 0.4811-0.0000 (  3862 PWs)   bands (ev):

   -26.2681 -26.2604 -17.9727 -15.1952 -13.9675 -12.1015 -10.0470  -9.0350
    -8.0027  -7.6894  -6.9625  -6.5585  -5.1498  -4.4036  -3.5691   2.8398
     4.2984   5.2416   7.5878

     occupation numbers 
     1.0000   1.0000   1.0000   1.0000   1.0000   1.0000   1.0000   1.0000
     1.0000   1.0000   1.0000   1.0000   1.0000   1.0000   1.0000   0.0000
     0.0000   0.0000   0.0000

          k =-0.0000-0.5774 0.0000 (  3866 PWs)   bands (ev):

   -26.1887 -26.1853 -16.9909 -15.4491 -13.9864 -13.2205  -9.7902  -9.2171
    -8.1375  -7.7694  -7.0689  -6.7905  -5.2350  -4.4564  -3.6419   2.9256
     3.9944   5.1704   7.9738

     occupation numbers 
     1.0000   1.0000   1.0000   1.0000   1.0000   1.0000   1.0000   1.0000
     1.0000   1.0000   1.0000   1.0000   1.0000   1.0000   1.0000   0.0000
     0.0000   0.0000   0.0000

          k = 0.0833-0.0481-0.0000 (  3825 PWs)   bands (ev):

   -27.1961 -27.1475 -21.4216 -18.0233 -12.0404  -9.3352  -6.5369  -6.0023
    -5.8678  -5.6841  -5.5097  -3.5936  -3.3257  -2.4478  -2.0989   2.3437
     4.4531   5.2187   5.3026

     occupation numbers 
     1.0000   1.0000   1.0000   1.0000   1.0000   1.0000   1.0000   1.0000
     1.0000   1.0000   1.0000   1.0000   1.0000   1.0000   1.0000   0.0000
     0.0000   0.0000   0.0000

          k = 0.0833 0.0481-0.0000 (  3825 PWs)   bands (ev):

   -27.1961 -27.1475 -21.4216 -18.0233 -12.0404  -9.3352  -6.5369  -6.0023
    -5.8678  -5.6841  -5.5098  -3.5936  -3.3257  -2.4478  -2.0989   2.3437
     4.4531   5.2187   5.3026

     occupation numbers 
     1.0000   1.0000   1.0000   1.0000   1.0000   1.0000   1.0000   1.0000
     1.0000   1.0000   1.0000   1.0000   1.0000   1.0000   1.0000   0.0000
     0.0000   0.0000   0.0000

          k = 0.0833 0.1443-0.0000 (  3808 PWs)   bands (ev):

   -27.0714 -27.0288 -21.1260 -17.7720 -11.8549  -9.2941  -7.2521  -6.6849
    -6.4289  -6.0605  -5.6483  -4.0134  -3.8174  -3.0361  -2.5592   2.8381
     4.4498   5.5555   5.8800

     occupation numbers 
     1.0000   1.0000   1.0000   1.0000   1.0000   1.0000   1.0000   1.0000
     1.0000   1.0000   1.0000   1.0000   1.0000   1.0000   1.0000   0.0000
     0.0000   0.0000   0.0000

          k = 0.0833 0.2406-0.0000 (  3837 PWs)   bands (ev):

   -26.8488 -26.8164 -20.5363 -17.2732 -11.5300  -9.3520  -8.6502  -7.8516
    -7.1841  -6.6701  -5.9953  -4.6829  -4.3319  -3.7826  -3.1132   3.3884
     4.4218   6.1966   6.6294

     occupation numbers 
     1.0000   1.0000   1.0000   1.0000   1.0000   1.0000   1.0000   1.0000
     1.0000   1.0000   1.0000   1.0000   1.0000   1.0000   1.0000   0.0000
     0.0000   0.0000   0.0000

          k = 0.0833 0.3368-0.0000 (  3856 PWs)   bands (ev):

   -26.5806 -26.5597 -19.6583 -16.5360 -11.4334 -10.4928  -9.6956  -8.6863
    -7.8735  -7.2794  -6.5508  -5.5106  -4.7759  -4.2310  -3.5061   3.4833
     4.6273   6.3272   7.2741

     occupation numbers 
     1.0000   1.0000   1.0000   1.0000   1.0000   1.0000   1.0000   1.0000
     1.0000   1.0000   1.0000   1.0000   1.0000   1.0000   1.0000   0.0000
     0.0000   0.0000   0.0000

          k = 0.0833 0.4330-0.0000 (  3875 PWs)   bands (ev):

   -26.3374 -26.3264 -18.5133 -15.5908 -13.0259 -11.3439 -10.1617  -8.9615
    -8.3409  -7.6639  -7.0998  -6.2238  -5.1296  -4.4195  -3.7713   3.4514
     4.7312   5.8973   7.6083

     occupation numbers 
     1.0000   1.0000   1.0000   1.0000   1.0000   1.0000   1.0000   1.0000
     1.0000   1.0000   1.0000   1.0000   1.0000   1.0000   1.0000   0.0000
     0.0000   0.0000   0.0000

          k = 0.0833-0.6255 0.0000 (  3882 PWs)   bands (ev):

   -26.1916 -26.1870 -17.2350 -15.0468 -14.1660 -12.7413  -9.8341  -9.1882
    -8.5999  -7.7762  -7.4366  -6.6289  -5.3219  -4.5076  -3.9093   3.6221
     4.2888   5.7519   7.8635

     occupation numbers 
     1.0000   1.0000   1.0000   1.0000   1.0000   1.0000   1.0000   1.0000
     1.0000   1.0000   1.0000   1.0000   1.0000   1.0000   1.0000   0.0000
     0.0000   0.0000   0.0000

          k = 0.0833-0.5292 0.0000 (  3882 PWs)   bands (ev):

   -26.1916 -26.1870 -17.2350 -15.0468 -14.1660 -12.7413  -9.8341  -9.1882
    -8.5999  -7.7762  -7.4366  -6.6289  -5.3219  -4.5076  -3.9093   3.6221
     4.2888   5.7519   7.8637

     occupation numbers 
     1.0000   1.0000   1.0000   1.0000   1.0000   1.0000   1.0000   1.0000
     1.0000   1.0000   1.0000   1.0000   1.0000   1.0000   1.0000   0.0000
     0.0000   0.0000   0.0000

          k = 0.0833-0.4330 0.0000 (  3875 PWs)   bands (ev):

   -26.3374 -26.3264 -18.5133 -15.5908 -13.0259 -11.3439 -10.1617  -8.9615
    -8.3409  -7.6639  -7.0998  -6.2238  -5.1296  -4.4195  -3.7713   3.4514
     4.7313   5.8973   7.6083

     occupation numbers 
     1.0000   1.0000   1.0000   1.0000   1.0000   1.0000   1.0000   1.0000
     1.0000   1.0000   1.0000   1.0000   1.0000   1.0000   1.0000   0.0000
     0.0000   0.0000   0.0000

          k = 0.0833-0.3368 0.0000 (  3856 PWs)   bands (ev):

   -26.5806 -26.5597 -19.6583 -16.5360 -11.4334 -10.4928  -9.6956  -8.6863
    -7.8735  -7.2794  -6.5508  -5.5105  -4.7759  -4.2310  -3.5061   3.4833
     4.6273   6.3272   7.2741

     occupation numbers 
     1.0000   1.0000   1.0000   1.0000   1.0000   1.0000   1.0000   1.0000
     1.0000   1.0000   1.0000   1.0000   1.0000   1.0000   1.0000   0.0000
     0.0000   0.0000   0.0000

          k = 0.0833-0.2406 0.0000 (  3837 PWs)   bands (ev):

   -26.8488 -26.8164 -20.5363 -17.2732 -11.5300  -9.3520  -8.6502  -7.8516
    -7.1841  -6.6701  -5.9953  -4.6829  -4.3319  -3.7826  -3.1132   3.3884
     4.4218   6.1966   6.6294

     occupation numbers 
     1.0000   1.0000   1.0000   1.0000   1.0000   1.0000   1.0000   1.0000
     1.0000   1.0000   1.0000   1.0000   1.0000   1.0000   1.0000   0.0000
     0.0000   0.0000   0.0000

          k = 0.0833-0.1443 0.0000 (  3807 PWs)   bands (ev):

   -27.0714 -27.0288 -21.1260 -17.7720 -11.8549  -9.2941  -7.2521  -6.6849
    -6.4289  -6.0605  -5.6483  -4.0134  -3.8174  -3.0361  -2.5592   2.8382
     4.4498   5.5555   5.8800

     occupation numbers 
     1.0000   1.0000   1.0000   1.0000   1.0000   1.0000   1.0000   1.0000
     1.0000   1.0000   1.0000   1.0000   1.0000   1.0000   1.0000   0.0000
     0.0000   0.0000   0.0000

          k = 0.1667-0.0962-0.0000 (  3829 PWs)   bands (ev):

   -27.0125 -26.9727 -20.9784 -17.6469 -11.7675  -9.2893  -7.7385  -7.1319
    -6.3871  -6.1305  -5.8180  -4.3042  -3.6788  -3.5805  -2.5360   2.8773
     4.2243   5.9642   6.2137

     occupation numbers 
     1.0000   1.0000   1.0000   1.0000   1.0000   1.0000   1.0000   1.0000
     1.0000   1.0000   1.0000   1.0000   1.0000   1.0000   1.0000   0.0000
     0.0000   0.0000   0.0000

          k = 0.1667 0.0000-0.0000 (  3808 PWs)   bands (ev):

   -27.0714 -27.0288 -21.1260 -17.7720 -11.8549  -9.2941  -7.2521  -6.6849
    -6.4289  -6.0605  -5.6483  -4.0134  -3.8174  -3.0361  -2.5592   2.8381
     4.4498   5.5555   5.8801

     occupation numbers 
     1.0000   1.0000   1.0000   1.0000   1.0000   1.0000   1.0000   1.0000
     1.0000   1.0000   1.0000   1.0000   1.0000   1.0000   1.0000   0.0000
     0.0000   0.0000   0.0000

          k = 0.1667 0.0962-0.0000 (  3829 PWs)   bands (ev):

   -27.0125 -26.9727 -20.9784 -17.6469 -11.7675  -9.2893  -7.7385  -7.1319
    -6.3871  -6.1305  -5.8180  -4.3042  -3.6788  -3.5805  -2.5360   2.8773
     4.2243   5.9643   6.2137

     occupation numbers 
     1.0000   1.0000   1.0000   1.0000   1.0000   1.0000   1.0000   1.0000
     1.0000   1.0000   1.0000   1.0000   1.0000   1.0000   1.0000   0.0000
     0.0000   0.0000   0.0000

          k = 0.1667 0.1925-0.0000 (  3837 PWs)   bands (ev):

   -26.8488 -26.8164 -20.5363 -17.2732 -11.5300  -9.3520  -8.6502  -7.8516
    -7.1841  -6.6701  -5.9953  -4.6829  -4.3319  -3.7826  -3.1132   3.3883
     4.4218   6.1966   6.6295

     occupation numbers 
     1.0000   1.0000   1.0000   1.0000   1.0000   1.0000   1.0000   1.0000
     1.0000   1.0000   1.0000   1.0000   1.0000   1.0000   1.0000   0.0000
     0.0000   0.0000   0.0000

          k = 0.1667 0.2887-0.0000 (  3844 PWs)   bands (ev):

   -26.6181 -26.5956 -19.8032 -16.6563 -11.2919  -9.7950  -9.7265  -8.4762
    -8.1810  -7.6233  -6.3901  -5.4317  -4.5857  -4.1174  -3.9025   4.2981
     4.6178   6.6496   7.6746

     occupation numbers 
     1.0000   1.0000   1.0000   1.0000   1.0000   1.0000   1.0000   1.0000
     1.0000   1.0000   1.0000   1.0000   1.0000   1.0000   1.0000   0.0000
     0.0000   0.0000   0.0000

          k = 0.1667 0.3849-0.0000 (  3867 PWs)   bands (ev):

   -26.3786 -26.3654 -18.7912 -15.8113 -12.0202 -10.8654 -10.0806  -9.1359
    -8.8057  -8.2039  -7.0103  -6.0181  -5.0099  -4.4927  -4.2409   4.4723
     5.1562   7.1348   7.4966

     occupation numbers 
     1.0000   1.0000   1.0000   1.0000   1.0000   1.0000   1.0000   1.0000
     1.0000   1.0000   1.0000   1.0000   1.0000   1.0000   1.0000   0.0000
     0.0000   0.0000   0.0000

          k = 0.1667-0.6736 0.0000 (  3870 PWs)   bands (ev):

   -26.1969 -26.1907 -17.5521 -14.8304 -13.6450 -11.9972  -9.9878  -9.6541
    -9.0967  -8.2642  -7.6137  -6.3677  -5.4585  -4.5965  -4.4441   4.4082
     5.4771   7.0063   7.4151

     occupation numbers 
     1.0000   1.0000   1.0000   1.0000   1.0000   1.0000   1.0000   1.0000
     1.0000   1.0000   1.0000   1.0000   1.0000   1.0000   1.0000   0.0000
     0.0000   0.0000   0.0000

          k = 0.1667-0.5774 0.0000 (  3885 PWs)   bands (ev):

   -26.1287 -26.1257 -16.5948 -15.0474 -13.5991 -13.0547 -10.1791  -9.4409
    -9.2441  -8.2703  -7.8794  -6.4882  -5.6223  -4.5831  -4.5611   4.4175
     5.4018   7.0735   7.4095

     occupation numbers 
     1.0000   1.0000   1.0000   1.0000   1.0000   1.0000   1.0000   1.0000
     1.0000   1.0000   1.0000   1.0000   1.0000   1.0000   1.0000   0.0000
     0.0000   0.0000   0.0000

          k = 0.1667-0.4811 0.0000 (  3870 PWs)   bands (ev):

   -26.1969 -26.1907 -17.5521 -14.8304 -13.6450 -11.9972  -9.9878  -9.6541
    -9.0967  -8.2642  -7.6137  -6.3677  -5.4585  -4.5965  -4.4441   4.4082
     5.4771   7.0063   7.4152

     occupation numbers 
     1.0000   1.0000   1.0000   1.0000   1.0000   1.0000   1.0000   1.0000
     1.0000   1.0000   1.0000   1.0000   1.0000   1.0000   1.0000   0.0000
     0.0000   0.0000   0.0000

          k = 0.1667-0.3849 0.0000 (  3867 PWs)   bands (ev):

   -26.3786 -26.3654 -18.7912 -15.8113 -12.0202 -10.8654 -10.0806  -9.1359
    -8.8057  -8.2039  -7.0103  -6.0180  -5.0099  -4.4927  -4.2409   4.4724
     5.1562   7.1348   7.4966

     occupation numbers 
     1.0000   1.0000   1.0000   1.0000   1.0000   1.0000   1.0000   1.0000
     1.0000   1.0000   1.0000   1.0000   1.0000   1.0000   1.0000   0.0000
     0.0000   0.0000   0.0000

          k = 0.1667-0.2887 0.0000 (  3843 PWs)   bands (ev):

   -26.6181 -26.5956 -19.8033 -16.6563 -11.2919  -9.7950  -9.7265  -8.4762
    -8.1810  -7.6233  -6.3901  -5.4317  -4.5857  -4.1174  -3.9025   4.2982
     4.6179   6.6496   7.6746

     occupation numbers 
     1.0000   1.0000   1.0000   1.0000   1.0000   1.0000   1.0000   1.0000
     1.0000   1.0000   1.0000   1.0000   1.0000   1.0000   1.0000   0.0000
     0.0000   0.0000   0.0000

          k = 0.1667-0.1925-0.0000 (  3837 PWs)   bands (ev):

   -26.8488 -26.8164 -20.5363 -17.2732 -11.5300  -9.3520  -8.6502  -7.8516
    -7.1841  -6.6701  -5.9953  -4.6829  -4.3319  -3.7826  -3.1132   3.3884
     4.4218   6.1966   6.6294

     occupation numbers 
     1.0000   1.0000   1.0000   1.0000   1.0000   1.0000   1.0000   1.0000
     1.0000   1.0000   1.0000   1.0000   1.0000   1.0000   1.0000   0.0000
     0.0000   0.0000   0.0000

          k = 0.2500-0.1443-0.0000 (  3853 PWs)   bands (ev):

   -26.7517 -26.7236 -20.2429 -17.0264 -11.4192  -9.8377  -9.1698  -8.3871
    -7.0354  -6.7625  -6.2455  -4.9772  -4.5633  -4.0039  -2.9959   2.9865
     4.2776   6.0084   7.0307

     occupation numbers 
     1.0000   1.0000   1.0000   1.0000   1.0000   1.0000   1.0000   1.0000
     1.0000   1.0000   1.0000   1.0000   1.0000   1.0000   1.0000   0.0000
     0.0000   0.0000   0.0000

          k = 0.2500-0.0481-0.0000 (  3837 PWs)   bands (ev):

   -26.8488 -26.8164 -20.5363 -17.2732 -11.5300  -9.3520  -8.6502  -7.8516
    -7.1841  -6.6701  -5.9953  -4.6829  -4.3319  -3.7826  -3.1132   3.3884
     4.4218   6.1966   6.6294

     occupation numbers 
     1.0000   1.0000   1.0000   1.0000   1.0000   1.0000   1.0000   1.0000
     1.0000   1.0000   1.0000   1.0000   1.0000   1.0000   1.0000   0.0000
     0.0000   0.0000   0.0000

          k = 0.2500 0.0481-0.0000 (  3837 PWs)   bands (ev):

   -26.8488 -26.8164 -20.5363 -17.2732 -11.5300  -9.3520  -8.6502  -7.8516
    -7.1841  -6.6701  -5.9953  -4.6829  -4.3319  -3.7826  -3.1132   3.3883
     4.4218   6.1966   6.6294

     occupation numbers 
     1.0000   1.0000   1.0000   1.0000   1.0000   1.0000   1.0000   1.0000
     1.0000   1.0000   1.0000   1.0000   1.0000   1.0000   1.0000   0.0000
     0.0000   0.0000   0.0000

          k = 0.2500 0.1443-0.0000 (  3853 PWs)   bands (ev):

   -26.7517 -26.7236 -20.2429 -17.0264 -11.4192  -9.8377  -9.1697  -8.3871
    -7.0354  -6.7626  -6.2455  -4.9772  -4.5633  -4.0039  -2.9959   2.9864
     4.2776   6.0084   7.0308

     occupation numbers 
     1.0000   1.0000   1.0000   1.0000   1.0000   1.0000   1.0000   1.0000
     1.0000   1.0000   1.0000   1.0000   1.0000   1.0000   1.0000   0.0000
     0.0000   0.0000   0.0000

          k = 0.2500 0.2406-0.0000 (  3856 PWs)   bands (ev):

   -26.5806 -26.5597 -19.6583 -16.5360 -11.4334 -10.4928  -9.6956  -8.6863
    -7.8735  -7.2794  -6.5508  -5.5105  -4.7759  -4.2310  -3.5061   3.4833
     4.6272   6.3272   7.2741

     occupation numbers 
     1.0000   1.0000   1.0000   1.0000   1.0000   1.0000   1.0000   1.0000
     1.0000   1.0000   1.0000   1.0000   1.0000   1.0000   1.0000   0.0000
     0.0000   0.0000   0.0000

          k = 0.2500 0.3368-0.0000 (  3867 PWs)   bands (ev):

   -26.3786 -26.3654 -18.7912 -15.8113 -12.0202 -10.8654 -10.0806  -9.1359
    -8.8057  -8.2040  -7.0103  -6.0180  -5.0099  -4.4927  -4.2409   4.4723
     5.1562   7.1349   7.4966

     occupation numbers 
     1.0000   1.0000   1.0000   1.0000   1.0000   1.0000   1.0000   1.0000
     1.0000   1.0000   1.0000   1.0000   1.0000   1.0000   1.0000   0.0000
     0.0000   0.0000   0.0000

          k = 0.2500-0.7217 0.0000 (  3885 PWs)   bands (ev):

   -26.1995 -26.1927 -17.6719 -14.8843 -12.9013 -11.8862 -10.0005  -9.9533
    -9.5577  -8.4673  -7.5715  -6.2810  -5.3102  -5.0055  -4.5159   4.7009
     5.9786   6.8774   9.0475

     occupation numbers 
     1.0000   1.0000   1.0000   1.0000   1.0000   1.0000   1.0000   1.0000
     1.0000   1.0000   1.0000   1.0000   1.0000   1.0000   1.0000   0.0000
     0.0000   0.0000   0.0000

          k = 0.2500-0.6255 0.0000 (  3858 PWs)   bands (ev):

   -26.0942 -26.0911 -16.4578 -14.2974 -13.6569 -12.7530 -10.9446 -10.2612
    -9.1462  -8.5398  -8.0710  -6.2485  -5.7324  -5.2351  -4.6023   4.7650
     5.8300   7.6216   8.6108

     occupation numbers 
     1.0000   1.0000   1.0000   1.0000   1.0000   1.0000   1.0000   1.0000
     1.0000   1.0000   1.0000   1.0000   1.0000   1.0000   1.0000   0.0000
     0.0000   0.0000   0.0000

          k = 0.2500-0.5292 0.0000 (  3858 PWs)   bands (ev):

   -26.0942 -26.0911 -16.4578 -14.2974 -13.6569 -12.7530 -10.9446 -10.2612
    -9.1462  -8.5398  -8.0710  -6.2485  -5.7325  -5.2351  -4.6023   4.7650
     5.8300   7.6216   8.6109

     occupation numbers 
     1.0000   1.0000   1.0000   1.0000   1.0000   1.0000   1.0000   1.0000
     1.0000   1.0000   1.0000   1.0000   1.0000   1.0000   1.0000   0.0000
     0.0000   0.0000   0.0000

          k = 0.2500-0.4330 0.0000 (  3885 PWs)   bands (ev):

   -26.1995 -26.1927 -17.6719 -14.8843 -12.9013 -11.8862 -10.0005  -9.9533
    -9.5577  -8.4673  -7.5715  -6.2810  -5.3102  -5.0055  -4.5159   4.7010
     5.9786   6.8774   9.0476

     occupation numbers 
     1.0000   1.0000   1.0000   1.0000   1.0000   1.0000   1.0000   1.0000
     1.0000   1.0000   1.0000   1.0000   1.0000   1.0000   1.0000   0.0000
     0.0000   0.0000   0.0000

          k = 0.2500-0.3368-0.0000 (  3867 PWs)   bands (ev):

   -26.3786 -26.3654 -18.7912 -15.8113 -12.0202 -10.8654 -10.0806  -9.1358
    -8.8057  -8.2039  -7.0103  -6.0180  -5.0099  -4.4927  -4.2409   4.4724
     5.1562   7.1348   7.4966

     occupation numbers 
     1.0000   1.0000   1.0000   1.0000   1.0000   1.0000   1.0000   1.0000
     1.0000   1.0000   1.0000   1.0000   1.0000   1.0000   1.0000   0.0000
     0.0000   0.0000   0.0000

          k = 0.2500-0.2406-0.0000 (  3856 PWs)   bands (ev):

   -26.5806 -26.5597 -19.6583 -16.5360 -11.4334 -10.4928  -9.6956  -8.6863
    -7.8735  -7.2794  -6.5508  -5.5105  -4.7759  -4.2310  -3.5061   3.4833
     4.6273   6.3272   7.2741

     occupation numbers 
     1.0000   1.0000   1.0000   1.0000   1.0000   1.0000   1.0000   1.0000
     1.0000   1.0000   1.0000   1.0000   1.0000   1.0000   1.0000   0.0000
     0.0000   0.0000   0.0000

          k = 0.3333-0.1925-0.0000 (  3877 PWs)   bands (ev):

   -26.4779 -26.4614 -19.2253 -16.1771 -12.1647 -10.8185 -10.1957  -8.8300
    -7.6154  -7.3586  -6.6651  -5.9040  -4.9321  -4.2495  -3.3517   2.8452
     4.4666   5.7019   7.3609

     occupation numbers 
     1.0000   1.0000   1.0000   1.0000   1.0000   1.0000   1.0000   1.0000
     1.0000   1.0000   1.0000   1.0000   1.0000   1.0000   1.0000   0.0000
     0.0000   0.0000   0.0000

          k = 0.3333-0.0962-0.0000 (  3856 PWs)   bands (ev):

   -26.5806 -26.5597 -19.6583 -16.5360 -11.4334 -10.4928  -9.6956  -8.6863
    -7.8735  -7.2794  -6.5508  -5.5106  -4.7759  -4.2310  -3.5061   3.4833
     4.6273   6.3272   7.2741

     occupation numbers 
     1.0000   1.0000   1.0000   1.0000   1.0000   1.0000   1.0000   1.0000
     1.0000   1.0000   1.0000   1.0000   1.0000   1.0000   1.0000   0.0000
     0.0000   0.0000   0.0000

          k = 0.3333 0.0000-0.0000 (  3844 PWs)   bands (ev):

   -26.6181 -26.5956 -19.8032 -16.6563 -11.2919  -9.7950  -9.7265  -8.4762
    -8.1810  -7.6233  -6.3901  -5.4317  -4.5857  -4.1174  -3.9025   4.2981
     4.6178   6.6496   7.6747

     occupation numbers 
     1.0000   1.0000   1.0000   1.0000   1.0000   1.0000   1.0000   1.0000
     1.0000   1.0000   1.0000   1.0000   1.0000   1.0000   1.0000   0.0000
     0.0000   0.0000   0.0000

          k = 0.3333 0.0962-0.0000 (  3856 PWs)   bands (ev):

   -26.5806 -26.5597 -19.6583 -16.5360 -11.4334 -10.4928  -9.6956  -8.6863
    -7.8735  -7.2794  -6.5508  -5.5105  -4.7759  -4.2310  -3.5061   3.4833
     4.6272   6.3272   7.2741

     occupation numbers 
     1.0000   1.0000   1.0000   1.0000   1.0000   1.0000   1.0000   1.0000
     1.0000   1.0000   1.0000   1.0000   1.0000   1.0000   1.0000   0.0000
     0.0000   0.0000   0.0000

          k = 0.3333 0.1925-0.0000 (  3877 PWs)   bands (ev):

   -26.4779 -26.4614 -19.2253 -16.1771 -12.1647 -10.8185 -10.1957  -8.8300
    -7.6154  -7.3586  -6.6651  -5.9040  -4.9321  -4.2495  -3.3517   2.8451
     4.4666   5.7019   7.3609

     occupation numbers 
     1.0000   1.0000   1.0000   1.0000   1.0000   1.0000   1.0000   1.0000
     1.0000   1.0000   1.0000   1.0000   1.0000   1.0000   1.0000   0.0000
     0.0000   0.0000   0.0000

          k = 0.3333 0.2887-0.0000 (  3875 PWs)   bands (ev):

   -26.3374 -26.3264 -18.5133 -15.5908 -13.0259 -11.3439 -10.1616  -8.9615
    -8.3409  -7.6639  -7.0998  -6.2238  -5.1296  -4.4195  -3.7713   3.4514
     4.7312   5.8974   7.6083

     occupation numbers 
     1.0000   1.0000   1.0000   1.0000   1.0000   1.0000   1.0000   1.0000
     1.0000   1.0000   1.0000   1.0000   1.0000   1.0000   1.0000   0.0000
     0.0000   0.0000   0.0000

          k = 0.3333-0.7698 0.0000 (  3870 PWs)   bands (ev):

   -26.1969 -26.1907 -17.5521 -14.8303 -13.6450 -11.9972  -9.9878  -9.6541
    -9.0967  -8.2642  -7.6137  -6.3677  -5.4585  -4.5965  -4.4441   4.4081
     5.4771   7.0063   7.4152

     occupation numbers 
     1.0000   1.0000   1.0000   1.0000   1.0000   1.0000   1.0000   1.0000
     1.0000   1.0000   1.0000   1.0000   1.0000   1.0000   1.0000   0.0000
     0.0000   0.0000   0.0000

          k = 0.3333-0.6736 0.0000 (  3858 PWs)   bands (ev):

   -26.0942 -26.0911 -16.4577 -14.2974 -13.6569 -12.7530 -10.9446 -10.2612
    -9.1461  -8.5398  -8.0711  -6.2485  -5.7325  -5.2351  -4.6023   4.7649
     5.8301   7.6216   8.6109

     occupation numbers 
     1.0000   1.0000   1.0000   1.0000   1.0000   1.0000   1.0000   1.0000
     1.0000   1.0000   1.0000   1.0000   1.0000   1.0000   1.0000   0.0000
     0.0000   0.0000   0.0000

          k = 0.3333-0.5774 0.0000 (  3843 PWs)   bands (ev):

   -26.0566 -26.0546 -15.8036 -13.9695 -13.9687 -12.8916 -11.1236 -11.1229
    -8.6384  -8.5818  -8.5806  -5.8696  -5.8271  -5.8254  -4.6274   5.2300
     5.2306   8.4373   9.1909

     occupation numbers 
     1.0000   1.0000   1.0000   1.0000   1.0000   1.0000   1.0000   1.0000
     1.0000   1.0000   1.0000   1.0000   1.0000   1.0000   1.0000   0.0000
     0.0000   0.0000   0.0000

          k = 0.3333-0.4811-0.0000 (  3858 PWs)   bands (ev):

   -26.0942 -26.0911 -16.4578 -14.2974 -13.6569 -12.7530 -10.9446 -10.2612
    -9.1462  -8.5398  -8.0710  -6.2485  -5.7325  -5.2351  -4.6023   4.7650
     5.8300   7.6216   8.6109

     occupation numbers 
     1.0000   1.0000   1.0000   1.0000   1.0000   1.0000   1.0000   1.0000
     1.0000   1.0000   1.0000   1.0000   1.0000   1.0000   1.0000   0.0000
     0.0000   0.0000   0.0000

          k = 0.3333-0.3849-0.0000 (  3870 PWs)   bands (ev):

   -26.1969 -26.1907 -17.5521 -14.8304 -13.6450 -11.9972  -9.9878  -9.6541
    -9.0967  -8.2642  -7.6137  -6.3677  -5.4585  -4.5965  -4.4441   4.4082
     5.4771   7.0063   7.4152

     occupation numbers 
     1.0000   1.0000   1.0000   1.0000   1.0000   1.0000   1.0000   1.0000
     1.0000   1.0000   1.0000   1.0000   1.0000   1.0000   1.0000   0.0000
     0.0000   0.0000   0.0000

          k = 0.3333-0.2887-0.0000 (  3875 PWs)   bands (ev):

   -26.3374 -26.3264 -18.5133 -15.5908 -13.0259 -11.3439 -10.1617  -8.9615
    -8.3409  -7.6639  -7.0998  -6.2238  -5.1296  -4.4195  -3.7713   3.4514
     4.7312   5.8973   7.6083

     occupation numbers 
     1.0000   1.0000   1.0000   1.0000   1.0000   1.0000   1.0000   1.0000
     1.0000   1.0000   1.0000   1.0000   1.0000   1.0000   1.0000   0.0000
     0.0000   0.0000   0.0000

          k = 0.4167-0.2406-0.0000 (  3862 PWs)   bands (ev):

   -26.2681 -26.2604 -17.9727 -15.1952 -13.9675 -12.1015 -10.0470  -9.0350
    -8.0027  -7.6894  -6.9625  -6.5584  -5.1498  -4.4036  -3.5691   2.8398
     4.2984   5.2416   7.5878

     occupation numbers 
     1.0000   1.0000   1.0000   1.0000   1.0000   1.0000   1.0000   1.0000
     1.0000   1.0000   1.0000   1.0000   1.0000   1.0000   1.0000   0.0000
     0.0000   0.0000   0.0000

          k = 0.4167-0.1443-0.0000 (  3875 PWs)   bands (ev):

   -26.3374 -26.3264 -18.5133 -15.5908 -13.0259 -11.3439 -10.1617  -8.9615
    -8.3409  -7.6639  -7.0998  -6.2238  -5.1296  -4.4195  -3.7713   3.4514
     4.7312   5.8974   7.6083

     occupation numbers 
     1.0000   1.0000   1.0000   1.0000   1.0000   1.0000   1.0000   1.0000
     1.0000   1.0000   1.0000   1.0000   1.0000   1.0000   1.0000   0.0000
     0.0000   0.0000   0.0000

          k = 0.4167-0.0481-0.0000 (  3867 PWs)   bands (ev):

   -26.3786 -26.3654 -18.7912 -15.8113 -12.0202 -10.8654 -10.0806  -9.1359
    -8.8057  -8.2039  -7.0103  -6.0181  -5.0099  -4.4927  -4.2409   4.4723
     5.1562   7.1349   7.4967

     occupation numbers 
     1.0000   1.0000   1.0000   1.0000   1.0000   1.0000   1.0000   1.0000
     1.0000   1.0000   1.0000   1.0000   1.0000   1.0000   1.0000   0.0000
     0.0000   0.0000   0.0000

          k = 0.4167 0.0481-0.0000 (  3867 PWs)   bands (ev):

   -26.3786 -26.3654 -18.7912 -15.8113 -12.0202 -10.8654 -10.0806  -9.1359
    -8.8057  -8.2040  -7.0103  -6.0180  -5.0099  -4.4927  -4.2409   4.4723
     5.1562   7.1349   7.4967

     occupation numbers 
     1.0000   1.0000   1.0000   1.0000   1.0000   1.0000   1.0000   1.0000
     1.0000   1.0000   1.0000   1.0000   1.0000   1.0000   1.0000   0.0000
     0.0000   0.0000   0.0000

          k = 0.4167 0.1443-0.0000 (  3875 PWs)   bands (ev):

   -26.3374 -26.3264 -18.5133 -15.5908 -13.0259 -11.3439 -10.1616  -8.9615
    -8.3409  -7.6639  -7.0998  -6.2238  -5.1296  -4.4195  -3.7713   3.4513
     4.7312   5.8974   7.6083

     occupation numbers 
     1.0000   1.0000   1.0000   1.0000   1.0000   1.0000   1.0000   1.0000
     1.0000   1.0000   1.0000   1.0000   1.0000   1.0000   1.0000   0.0000
     0.0000   0.0000   0.0000

          k = 0.4167 0.2406-0.0000 (  3863 PWs)   bands (ev):

   -26.2681 -26.2604 -17.9727 -15.1952 -13.9675 -12.1015 -10.0470  -9.0350
    -8.0027  -7.6894  -6.9625  -6.5584  -5.1498  -4.4036  -3.5691   2.8398
     4.2983   5.2417   7.5878

     occupation numbers 
     1.0000   1.0000   1.0000   1.0000   1.0000   1.0000   1.0000   1.0000
     1.0000   1.0000   1.0000   1.0000   1.0000   1.0000   1.0000   0.0000
     0.0000   0.0000   0.0000

          k = 0.4167-0.8179 0.0000 (  3882 PWs)   bands (ev):

   -26.1916 -26.1870 -17.2350 -15.0468 -14.1660 -12.7413  -9.8341  -9.1882
    -8.5999  -7.7762  -7.4367  -6.6289  -5.3219  -4.5076  -3.9093   3.6221
     4.2888   5.7519   7.8637

     occupation numbers 
     1.0000   1.0000   1.0000   1.0000   1.0000   1.0000   1.0000   1.0000
     1.0000   1.0000   1.0000   1.0000   1.0000   1.0000   1.0000   0.0000
     0.0000   0.0000   0.0000

          k = 0.4167-0.7217 0.0000 (  3885 PWs)   bands (ev):

   -26.1287 -26.1257 -16.5948 -15.0474 -13.5991 -13.0547 -10.1791  -9.4409
    -9.2441  -8.2703  -7.8795  -6.4881  -5.6223  -4.5831  -4.5611   4.4174
     5.4018   7.0735   7.4096

     occupation numbers 
     1.0000   1.0000   1.0000   1.0000   1.0000   1.0000   1.0000   1.0000
     1.0000   1.0000   1.0000   1.0000   1.0000   1.0000   1.0000   0.0000
     0.0000   0.0000   0.0000

          k = 0.4167-0.6255-0.0000 (  3858 PWs)   bands (ev):

   -26.0942 -26.0911 -16.4577 -14.2974 -13.6569 -12.7530 -10.9446 -10.2612
    -9.1461  -8.5398  -8.0711  -6.2485  -5.7325  -5.2351  -4.6023   4.7649
     5.8301   7.6216   8.6108

     occupation numbers 
     1.0000   1.0000   1.0000   1.0000   1.0000   1.0000   1.0000   1.0000
     1.0000   1.0000   1.0000   1.0000   1.0000   1.0000   1.0000   0.0000
     0.0000   0.0000   0.0000

          k = 0.4167-0.5292-0.0000 (  3858 PWs)   bands (ev):

   -26.0942 -26.0911 -16.4578 -14.2974 -13.6569 -12.7530 -10.9446 -10.2612
    -9.1462  -8.5398  -8.0710  -6.2485  -5.7324  -5.2351  -4.6023   4.7650
     5.8300   7.6216   8.6108

     occupation numbers 
     1.0000   1.0000   1.0000   1.0000   1.0000   1.0000   1.0000   1.0000
     1.0000   1.0000   1.0000   1.0000   1.0000   1.0000   1.0000   0.0000
     0.0000   0.0000   0.0000

          k = 0.4167-0.4330-0.0000 (  3885 PWs)   bands (ev):

   -26.1287 -26.1257 -16.5948 -15.0474 -13.5991 -13.0547 -10.1791  -9.4409
    -9.2441  -8.2703  -7.8794  -6.4882  -5.6223  -4.5831  -4.5611   4.4175
     5.4018   7.0735   7.4095

     occupation numbers 
     1.0000   1.0000   1.0000   1.0000   1.0000   1.0000   1.0000   1.0000
     1.0000   1.0000   1.0000   1.0000   1.0000   1.0000   1.0000   0.0000
     0.0000   0.0000   0.0000

          k = 0.4167-0.3368-0.0000 (  3882 PWs)   bands (ev):

   -26.1916 -26.1870 -17.2350 -15.0468 -14.1660 -12.7413  -9.8341  -9.1882
    -8.5999  -7.7762  -7.4366  -6.6289  -5.3219  -4.5076  -3.9093   3.6221
     4.2888   5.7519   7.8637

     occupation numbers 
     1.0000   1.0000   1.0000   1.0000   1.0000   1.0000   1.0000   1.0000
     1.0000   1.0000   1.0000   1.0000   1.0000   1.0000   1.0000   0.0000
     0.0000   0.0000   0.0000

          k =-0.5000 0.2887 0.0000 (  3866 PWs)   bands (ev):

   -26.1887 -26.1853 -16.9909 -15.4491 -13.9863 -13.2205  -9.7902  -9.2171
    -8.1375  -7.7694  -7.0689  -6.7905  -5.2350  -4.4564  -3.6419   2.9256
     3.9944   5.1704   7.9741

     occupation numbers 
     1.0000   1.0000   1.0000   1.0000   1.0000   1.0000   1.0000   1.0000
     1.0000   1.0000   1.0000   1.0000   1.0000   1.0000   1.0000   0.0000
     0.0000   0.0000   0.0000

          k =-0.5000 0.3849 0.0000 (  3882 PWs)   bands (ev):

   -26.1916 -26.1870 -17.2350 -15.0468 -14.1660 -12.7413  -9.8341  -9.1882
    -8.5999  -7.7762  -7.4367  -6.6289  -5.3219  -4.5076  -3.9093   3.6221
     4.2888   5.7519   7.8636

     occupation numbers 
     1.0000   1.0000   1.0000   1.0000   1.0000   1.0000   1.0000   1.0000
     1.0000   1.0000   1.0000   1.0000   1.0000   1.0000   1.0000   0.0000
     0.0000   0.0000   0.0000

          k =-0.5000 0.4811 0.0000 (  3870 PWs)   bands (ev):

   -26.1969 -26.1907 -17.5521 -14.8304 -13.6450 -11.9972  -9.9878  -9.6541
    -9.0967  -8.2642  -7.6137  -6.3677  -5.4585  -4.5965  -4.4441   4.4082
     5.4771   7.0063   7.4151

     occupation numbers 
     1.0000   1.0000   1.0000   1.0000   1.0000   1.0000   1.0000   1.0000
     1.0000   1.0000   1.0000   1.0000   1.0000   1.0000   1.0000   0.0000
     0.0000   0.0000   0.0000

          k =-0.5000 0.5774 0.0000 (  3885 PWs)   bands (ev):

   -26.1995 -26.1927 -17.6719 -14.8843 -12.9013 -11.8861 -10.0005  -9.9533
    -9.5577  -8.4673  -7.5715  -6.2810  -5.3102  -5.0055  -4.5159   4.7009
     5.9786   6.8774   9.0475

     occupation numbers 
     1.0000   1.0000   1.0000   1.0000   1.0000   1.0000   1.0000   1.0000
     1.0000   1.0000   1.0000   1.0000   1.0000   1.0000   1.0000   0.0000
     0.0000   0.0000   0.0000

          k =-0.5000 0.6736 0.0000 (  3870 PWs)   bands (ev):

   -26.1969 -26.1907 -17.5521 -14.8303 -13.6450 -11.9972  -9.9878  -9.6541
    -9.0967  -8.2642  -7.6137  -6.3677  -5.4585  -4.5965  -4.4441   4.4081
     5.4771   7.0063   7.4152

     occupation numbers 
     1.0000   1.0000   1.0000   1.0000   1.0000   1.0000   1.0000   1.0000
     1.0000   1.0000   1.0000   1.0000   1.0000   1.0000   1.0000   0.0000
     0.0000   0.0000   0.0000

          k =-0.5000 0.7698 0.0000 (  3882 PWs)   bands (ev):

   -26.1916 -26.1870 -17.2350 -15.0468 -14.1660 -12.7413  -9.8341  -9.1882
    -8.5999  -7.7762  -7.4367  -6.6289  -5.3219  -4.5076  -3.9093   3.6221
     4.2888   5.7519   7.8636

     occupation numbers 
     1.0000   1.0000   1.0000   1.0000   1.0000   1.0000   1.0000   1.0000
     1.0000   1.0000   1.0000   1.0000   1.0000   1.0000   1.0000   0.0000
     0.0000   0.0000   0.0000

          k =-0.5000-0.2887 0.0001 (  3866 PWs)   bands (ev):

   -26.1887 -26.1853 -16.9909 -15.4491 -13.9863 -13.2205  -9.7902  -9.2171
    -8.1375  -7.7694  -7.0689  -6.7905  -5.2350  -4.4564  -3.6419   2.9256
     3.9943   5.1705   7.9739

     occupation numbers 
     1.0000   1.0000   1.0000   1.0000   1.0000   1.0000   1.0000   1.0000
     1.0000   1.0000   1.0000   1.0000   1.0000   1.0000   1.0000   0.0000
     0.0000   0.0000   0.0000

     the Fermi energy is     0.3498 ev

!    total energy              =    -189.94151602 Ry
     Harris-Foulkes estimate   =    -189.94151614 Ry
     estimated scf accuracy    <       0.00000013 Ry

     total all-electron energy =      -701.913631 Ry

     The total energy is the sum of the following terms:

     one-electron contribution =   -1530.24273768 Ry
     hartree contribution      =     774.85271357 Ry
     xc contribution           =     -37.22386563 Ry
     ewald contribution        =     647.67024687 Ry
     one-center paw contrib.   =     -44.99787316 Ry
      -> PAW hartree energy AE =     118.11668967 Ry
      -> PAW hartree energy PS =    -118.03672968 Ry
      -> PAW xc energy AE      =     -80.60182702 Ry
      -> PAW xc energy PS      =      35.52399387 Ry
      -> total E_H with PAW    =     774.93267356 Ry
      -> total E_XC with PAW   =     -82.30169878 Ry
     smearing contrib. (-TS)   =      -0.00000000 Ry

     convergence has been achieved in   8 iterations

     negative rho (up, down):  6.085E-04 0.000E+00

     Forces acting on atoms (cartesian axes, Ry/au):

     atom    1 type  1   force =    -0.00000129   -0.00000157   -0.01020790
     atom    2 type  1   force =    -0.00000374   -0.00000296    0.00144797
     atom    3 type  1   force =     0.00000072    0.00000091    0.01005830
     atom    4 type  1   force =     0.00000258    0.00000251   -0.00158838
     atom    5 type  2   force =     0.00000290    0.00000237    0.01685617
     atom    6 type  2   force =    -0.00000116   -0.00000126   -0.01656616
     The non-local contrib.  to forces
     atom    1 type  1   force =    -0.00000512   -0.00000384   -0.40830404
     atom    2 type  1   force =    -0.00000559   -0.00000403    0.09160877
     atom    3 type  1   force =     0.00000324    0.00000296    0.40839516
     atom    4 type  1   force =     0.00000367    0.00000281   -0.09144593
     atom    5 type  2   force =     0.00004222    0.00003197    3.17589836
     atom    6 type  2   force =    -0.00001670   -0.00001716   -3.17542458
     The ionic contribution  to forces
     atom    1 type  1   force =     0.00006252    0.00004491  -13.70670187
     atom    2 type  1   force =    -0.00000212    0.00000174   -9.48498891
     atom    3 type  1   force =    -0.00002319   -0.00002283   13.70686281
     atom    4 type  1   force =    -0.00000691   -0.00000675    9.48496790
     atom    5 type  2   force =    -0.00005179   -0.00003890  -67.88752975
     atom    6 type  2   force =     0.00002149    0.00002183   67.88738981
     The local contribution  to forces
     atom    1 type  1   force =    -0.00005811   -0.00004287   14.09685013
     atom    2 type  1   force =     0.00000413   -0.00000078    9.39735024
     atom    3 type  1   force =     0.00002017    0.00002071  -14.09652773
     atom    4 type  1   force =     0.00000548    0.00000697   -9.39679122
     atom    5 type  2   force =     0.00001292    0.00000852   64.73922632
     atom    6 type  2   force =    -0.00000634   -0.00000531  -64.73911334
     The core correction contribution to forces
     atom    1 type  1   force =    -0.00000026   -0.00000016    0.00873642
     atom    2 type  1   force =    -0.00000005   -0.00000003   -0.00176217
     atom    3 type  1   force =     0.00000050    0.00000031   -0.00882214
     atom    4 type  1   force =     0.00000035    0.00000024    0.00161935
     atom    5 type  2   force =    -0.00000016   -0.00000012   -0.01025859
     atom    6 type  2   force =     0.00000006    0.00000006    0.01025803
     The Hubbard contrib.    to forces
     atom    1 type  1   force =     0.00000000    0.00000000    0.00000000
     atom    2 type  1   force =     0.00000000    0.00000000    0.00000000
     atom    3 type  1   force =     0.00000000    0.00000000    0.00000000
     atom    4 type  1   force =     0.00000000    0.00000000    0.00000000
     atom    5 type  2   force =     0.00000000    0.00000000    0.00000000
     atom    6 type  2   force =     0.00000000    0.00000000    0.00000000
     The SCF correction term to forces
     atom    1 type  1   force =    -0.00000017    0.00000056   -0.00076818
     atom    2 type  1   force =     0.00000004    0.00000031   -0.00073959
     atom    3 type  1   force =     0.00000015   -0.00000006    0.00017056
     atom    4 type  1   force =     0.00000014   -0.00000059    0.00008189
     atom    5 type  2   force =    -0.00000013    0.00000107   -0.00045981
     atom    6 type  2   force =     0.00000047   -0.00000051    0.00034427

     Total force =     0.027723     Total SCF correction =     0.001226


     Computing stress (Cartesian axis) and pressure


     negative rho (up, down):  6.085E-04 0.000E+00
          total   stress  (Ry/bohr**3)                   (kbar)     P=   -8.37
  -0.00000059  -0.00000000  -0.00000001         -0.09     -0.00     -0.00
  -0.00000000  -0.00000059  -0.00000001         -0.00     -0.09     -0.00
  -0.00000001  -0.00000001  -0.00016945         -0.00     -0.00    -24.93

     kinetic stress (kbar)   9345.79      0.00     -0.01
                                0.00   9345.79     -0.01
                               -0.01     -0.01   8475.08

     local   stress (kbar)-296298.24      0.01     -0.03
                                0.01-296298.25     -0.02
                               -0.03     -0.02 285882.82

     nonloc. stress (kbar)   3195.87     -0.00     -0.00
                               -0.00   3195.87     -0.00
                               -0.00     -0.00   2926.65

     hartree stress (kbar) 146064.89     -0.00      0.01
                               -0.00 146064.89      0.01
                                0.01      0.01-141510.81

     exc-cor stress (kbar)  -1152.03     -0.00      0.00
                               -0.00  -1152.03      0.00
                                0.00      0.00  -1148.90

     corecor stress (kbar)   -955.82      0.00      0.00
                                0.00   -955.82      0.00
                                0.00      0.00   -947.57

     ewald   stress (kbar) 139799.46     -0.01      0.03
                               -0.01 139799.47      0.03
                                0.03      0.03-153702.19

     hubbard stress (kbar)      0.00      0.00      0.00
                                0.00      0.00      0.00
                                0.00      0.00      0.00

     london  stress (kbar)      0.00      0.00      0.00
                                0.00      0.00      0.00
                                0.00      0.00      0.00

     DFT-D3  stress (kbar)      0.00      0.00      0.00
                                0.00      0.00      0.00
                                0.00      0.00      0.00

     XDM     stress (kbar)      0.00      0.00      0.00
                                0.00      0.00      0.00
                                0.00      0.00      0.00

     dft-nl  stress (kbar)      0.00      0.00      0.00
                                0.00      0.00      0.00
                                0.00      0.00      0.00

     TS-vdW  stress (kbar)      0.00      0.00      0.00
                                0.00      0.00      0.00
                                0.00      0.00      0.00

     3D-RISM stress (kbar)      0.00      0.00      0.00
                                0.00      0.00      0.00
                                0.00      0.00      0.00



     Writing output data file pwscf.save\

     init_run     :     28.33s CPU     16.09s WALL (       1 calls)
     electrons    :    183.77s CPU    110.43s WALL (       1 calls)
     forces       :     13.91s CPU      2.55s WALL (       1 calls)
     stress       :     41.12s CPU      8.56s WALL (       1 calls)

     Called by init_run:
     wfcinit      :     10.38s CPU      5.87s WALL (       1 calls)
     wfcinit:atom :      0.33s CPU      0.35s WALL (      74 calls)
     wfcinit:wfcr :      6.59s CPU      4.36s WALL (      74 calls)
     potinit      :      8.45s CPU      1.33s WALL (       1 calls)
     hinit0       :      9.28s CPU      8.66s WALL (       1 calls)

     Called by electrons:
     c_bands      :    145.03s CPU     89.91s WALL (       8 calls)
     sum_band     :     29.09s CPU     16.59s WALL (       8 calls)
     v_of_rho     :      3.91s CPU      0.95s WALL (       9 calls)
     v_h          :      0.08s CPU      0.07s WALL (       9 calls)
     v_xc         :      4.72s CPU      1.09s WALL (      11 calls)
     newd         :      1.73s CPU      0.99s WALL (       9 calls)
     PAW_pot      :      4.81s CPU      2.37s WALL (       9 calls)
     mix_rho      :      0.39s CPU      0.13s WALL (       8 calls)

     Called by c_bands:
     init_us_2    :      1.25s CPU      0.89s WALL (    1406 calls)
     cegterg      :    137.27s CPU     87.38s WALL (     592 calls)

     Called by sum_band:
     sum_band:bec :      0.27s CPU      0.41s WALL (     592 calls)
     addusdens    :      1.86s CPU      1.17s WALL (       8 calls)

     Called by *egterg:
     h_psi        :    124.44s CPU     73.48s WALL (    2716 calls)
     s_psi        :      2.67s CPU      3.68s WALL (    2716 calls)
     g_psi        :      2.16s CPU      1.08s WALL (    2050 calls)
     cdiaghg      :      2.81s CPU      2.47s WALL (    2642 calls)
     cegterg:over :      3.47s CPU      3.40s WALL (    2050 calls)
     cegterg:upda :      3.86s CPU      3.30s WALL (    2050 calls)
     cegterg:last :      0.67s CPU      0.82s WALL (     594 calls)

     Called by h_psi:
     h_psi:pot    :    121.91s CPU     71.47s WALL (    2716 calls)
     h_psi:calbec :      3.61s CPU      3.24s WALL (    2716 calls)
     vloc_psi     :    116.94s CPU     66.19s WALL (    2716 calls)
     add_vuspsi   :      1.36s CPU      2.03s WALL (    2716 calls)

     General routines
     calbec       :      5.88s CPU      4.90s WALL (    3678 calls)
     fft          :      0.66s CPU      0.24s WALL (     140 calls)
     ffts         :      0.00s CPU      0.01s WALL (      17 calls)
     fftw         :     79.16s CPU     41.30s WALL (   78260 calls)
     interpolate  :      0.02s CPU      0.02s WALL (       9 calls)

     Parallel routines

     PAW routines
     PAW_pot      :      4.81s CPU      2.37s WALL (       9 calls)

     PWSCF        :   4m29.48s CPU   2m22.85s WALL


   This run was terminated on:  14:47:32  22Nov2024            

=------------------------------------------------------------------------------=
   JOB DONE.
=------------------------------------------------------------------------------=
