
     Program PWSCF v.6.4.1 starts on 19Nov2024 at 17: 9:33 

     This program is part of the open-source Quantum ESPRESSO suite
     for quantum simulation of materials; please cite
         "P. Giannozzi et al., J. Phys.:Condens. Matter 21 395502 (2009);
         "P. Giannozzi et al., J. Phys.:Condens. Matter 29 465901 (2017);
          URL http://www.quantum-espresso.org", 
     in publications or presentations arising from this work. More details at
     http://www.quantum-espresso.org/quote

     Parallel version (MPI & OpenMP), running on      12 processor cores
     Number of MPI processes:                 1
     Threads/MPI process:                    12

     MPI processes distributed on     1 nodes
     Waiting for input...
     Reading input from standard input

     Current dimensions of program PWSCF are:
     Max number of different atomic species (ntypx) = 10
     Max number of k-points (npk) =  40000
     Max angular momentum in pseudopotentials (lmaxx) =  3
               file C.pbesol-n-kjpaw_psl.1.0.0.UPF: wavefunction(s)  2S 2P renormalized
               file F.pbesol-n-kjpaw_psl.1.0.0.UPF: wavefunction(s)  2S 2P renormalized

     Subspace diagonalization in iterative solution of the eigenvalue problem:
     a serial algorithm will be used


     G-vector sticks info
     --------------------
     sticks:   dense  smooth     PW     G-vecs:    dense   smooth      PW
     Sum         583     295     97                88889    31423    6227



     bravais-lattice index     =            0
     lattice parameter (alat)  =       4.8507  a.u.
     unit-cell volume          =     769.2439 (a.u.)^3
     number of atoms/cell      =            6
     number of atomic types    =            2
     number of electrons       =        30.00
     number of Kohn-Sham states=           19
     kinetic-energy cutoff     =      45.0000  Ry
     charge density cutoff     =     360.0000  Ry
     convergence threshold     =      1.2E-09
     mixing beta               =       0.4000
     number of iterations used =            8  plain     mixing
     Exchange-correlation      = SLA PW PSX PSC ( 1  4 10  8 0 0)

     celldm(1)=   4.850737  celldm(2)=   0.000000  celldm(3)=   0.000000
     celldm(4)=   0.000000  celldm(5)=   0.000000  celldm(6)=   0.000000

     crystal axes: (cart. coord. in units of alat)
               a(1) = (   1.000000   0.000000   0.000000 )  
               a(2) = (   0.500000   0.866025   0.000000 )  
               a(3) = (   0.000640   0.000376   7.782340 )  

     reciprocal axes: (cart. coord. in units 2 pi/alat)
               b(1) = (  1.000000 -0.577350 -0.000054 )  
               b(2) = (  0.000000  1.154701 -0.000056 )  
               b(3) = (  0.000000  0.000000  0.128496 )  


     PseudoPot. # 1 for C  read from file:
     .\C.pbesol-n-kjpaw_psl.1.0.0.UPF
     MD5 check sum: f9b2fe17d1f478429498b05d17159f9e
     Pseudo is Projector augmented-wave + core cor, Zval =  4.0
     Generated using "atomic" code by A. Dal Corso v.6.3
     Shape of augmentation charge: PSQ
     Using radial grid of 1073 points,  4 beta functions with: 
                l(1) =   0
                l(2) =   0
                l(3) =   1
                l(4) =   1
     Q(r) pseudized with 0 coefficients 


     PseudoPot. # 2 for F  read from file:
     .\F.pbesol-n-kjpaw_psl.1.0.0.UPF
     MD5 check sum: d939582bcd23f1ece12cfc4fab8d9d36
     Pseudo is Projector augmented-wave + core cor, Zval =  7.0
     Generated using "atomic" code by A. Dal Corso v.6.3
     Shape of augmentation charge: PSQ
     Using radial grid of 1105 points,  4 beta functions with: 
                l(1) =   0
                l(2) =   0
                l(3) =   1
                l(4) =   1
     Q(r) pseudized with 0 coefficients 


     atomic species   valence    mass     pseudopotential
        C              4.00    12.01070     C ( 1.00)
        F              7.00    18.99840     F ( 1.00)

     No symmetry found


                                    s                        frac. trans.

      isym =  1     identity                                     

 cryst.   s( 1) = (     1          0          0      )
                  (     0          1          0      )
                  (     0          0          1      )

 cart.    s( 1) = (  1.0000000  0.0000000  0.0000000 )
                  (  0.0000000  1.0000000  0.0000000 )
                  (  0.0000000  0.0000000  1.0000000 )


   Cartesian axes

     site n.     atom                  positions (alat units)
         1           C   tau(   1) = (   0.0003519   0.0002070   3.9178512  )
         2           C   tau(   2) = (   0.5003526   0.2888824   4.1138039  )
         3           C   tau(   3) = (   1.0003491   0.5775541   4.9151223  )
         4           C   tau(   4) = (   0.5003488   0.2888789   4.7191654  )
         5           F   tau(   5) = (   0.0003452   0.0002019   3.3809522  )
         6           F   tau(   6) = (   1.0003518   0.5775569   5.4520245  )

   Crystallographic axes

     site n.     atom                  positions (cryst. coord.)
         1           C   tau(   1) = (  0.0000192  0.0000206  0.5034284  )
         2           C   tau(   2) = (  0.3333424  0.3333434  0.5286075  )
         3           C   tau(   3) = (  0.6666304  0.6666281  0.6315738  )
         4           C   tau(   4) = (  0.3333076  0.3333056  0.6063941  )
         5           F   tau(   5) = (  0.0000446  0.0000447  0.4344390  )
         6           F   tau(   6) = (  0.6666024  0.6666014  0.7005636  )

     number of k points=    41  Marzari-Vanderbilt smearing, width (Ry)=  0.0200
                       cart. coord. in units 2pi/alat
        k(    1) = (   0.0000000   0.0000000   0.0000000), wk =   0.0246914
        k(    2) = (   0.0000000   0.1283001  -0.0000062), wk =   0.0493827
        k(    3) = (   0.0000000   0.2566001  -0.0000124), wk =   0.0493827
        k(    4) = (   0.0000000   0.3849002  -0.0000186), wk =   0.0493827
        k(    5) = (   0.0000000   0.5132003  -0.0000248), wk =   0.0493827
        k(    6) = (   0.1111111  -0.0641500  -0.0000060), wk =   0.0493827
        k(    7) = (   0.1111111   0.0641500  -0.0000122), wk =   0.0493827
        k(    8) = (   0.1111111   0.1924501  -0.0000184), wk =   0.0493827
        k(    9) = (   0.1111111   0.3207502  -0.0000246), wk =   0.0493827
        k(   10) = (   0.1111111   0.4490502  -0.0000308), wk =   0.0493827
        k(   11) = (   0.1111111  -0.5773503   0.0000187), wk =   0.0493827
        k(   12) = (   0.1111111  -0.4490503   0.0000125), wk =   0.0493827
        k(   13) = (   0.1111111  -0.3207502   0.0000063), wk =   0.0493827
        k(   14) = (   0.1111111  -0.1924501   0.0000001), wk =   0.0493827
        k(   15) = (   0.2222222  -0.1283001  -0.0000121), wk =   0.0493827
        k(   16) = (   0.2222222  -0.0000000  -0.0000183), wk =   0.0493827
        k(   17) = (   0.2222222   0.1283000  -0.0000245), wk =   0.0493827
        k(   18) = (   0.2222222   0.2566001  -0.0000307), wk =   0.0493827
        k(   19) = (   0.2222222   0.3849002  -0.0000369), wk =   0.0493827
        k(   20) = (   0.2222222  -0.6415004   0.0000127), wk =   0.0493827
        k(   21) = (   0.2222222  -0.5132003   0.0000065), wk =   0.0493827
        k(   22) = (   0.2222222  -0.3849002   0.0000003), wk =   0.0493827
        k(   23) = (   0.2222222  -0.2566002  -0.0000059), wk =   0.0493827
        k(   24) = (   0.3333333  -0.1924501  -0.0000181), wk =   0.0493827
        k(   25) = (   0.3333333  -0.0641501  -0.0000243), wk =   0.0493827
        k(   26) = (   0.3333333   0.0641500  -0.0000305), wk =   0.0493827
        k(   27) = (   0.3333333   0.1924501  -0.0000367), wk =   0.0493827
        k(   28) = (   0.3333333   0.3207501  -0.0000429), wk =   0.0493827
        k(   29) = (   0.3333333  -0.7056504   0.0000066), wk =   0.0493827
        k(   30) = (   0.3333333  -0.5773504   0.0000004), wk =   0.0493827
        k(   31) = (   0.3333333  -0.4490503  -0.0000058), wk =   0.0493827
        k(   32) = (   0.3333333  -0.3207502  -0.0000119), wk =   0.0493827
        k(   33) = (   0.4444444  -0.2566002  -0.0000242), wk =   0.0493827
        k(   34) = (   0.4444444  -0.1283001  -0.0000304), wk =   0.0493827
        k(   35) = (   0.4444444  -0.0000001  -0.0000366), wk =   0.0493827
        k(   36) = (   0.4444444   0.1283000  -0.0000428), wk =   0.0493827
        k(   37) = (   0.4444444   0.2566001  -0.0000490), wk =   0.0493827
        k(   38) = (   0.4444444  -0.7698005   0.0000006), wk =   0.0493827
        k(   39) = (   0.4444444  -0.6415004  -0.0000056), wk =   0.0493827
        k(   40) = (   0.4444444  -0.5132003  -0.0000118), wk =   0.0493827
        k(   41) = (   0.4444444  -0.3849003  -0.0000180), wk =   0.0493827

                       cryst. coord.
        k(    1) = (   0.0000000   0.0000000   0.0000000), wk =   0.0246914
        k(    2) = (   0.0000000   0.1111111   0.0000000), wk =   0.0493827
        k(    3) = (   0.0000000   0.2222222   0.0000000), wk =   0.0493827
        k(    4) = (   0.0000000   0.3333333   0.0000000), wk =   0.0493827
        k(    5) = (   0.0000000   0.4444444   0.0000000), wk =   0.0493827
        k(    6) = (   0.1111111   0.0000000   0.0000000), wk =   0.0493827
        k(    7) = (   0.1111111   0.1111111   0.0000000), wk =   0.0493827
        k(    8) = (   0.1111111   0.2222222   0.0000000), wk =   0.0493827
        k(    9) = (   0.1111111   0.3333333   0.0000000), wk =   0.0493827
        k(   10) = (   0.1111111   0.4444444   0.0000000), wk =   0.0493827
        k(   11) = (   0.1111111  -0.4444444   0.0000000), wk =   0.0493827
        k(   12) = (   0.1111111  -0.3333333  -0.0000000), wk =   0.0493827
        k(   13) = (   0.1111111  -0.2222222  -0.0000000), wk =   0.0493827
        k(   14) = (   0.1111111  -0.1111111   0.0000000), wk =   0.0493827
        k(   15) = (   0.2222222   0.0000000   0.0000000), wk =   0.0493827
        k(   16) = (   0.2222222   0.1111111   0.0000000), wk =   0.0493827
        k(   17) = (   0.2222222   0.2222222   0.0000000), wk =   0.0493827
        k(   18) = (   0.2222222   0.3333333   0.0000000), wk =   0.0493827
        k(   19) = (   0.2222222   0.4444444   0.0000000), wk =   0.0493827
        k(   20) = (   0.2222222  -0.4444444  -0.0000000), wk =   0.0493827
        k(   21) = (   0.2222222  -0.3333333   0.0000000), wk =   0.0493827
        k(   22) = (   0.2222222  -0.2222222  -0.0000000), wk =   0.0493827
        k(   23) = (   0.2222222  -0.1111111   0.0000000), wk =   0.0493827
        k(   24) = (   0.3333333   0.0000000   0.0000000), wk =   0.0493827
        k(   25) = (   0.3333333   0.1111111   0.0000000), wk =   0.0493827
        k(   26) = (   0.3333333   0.2222222   0.0000000), wk =   0.0493827
        k(   27) = (   0.3333333   0.3333333   0.0000000), wk =   0.0493827
        k(   28) = (   0.3333333   0.4444444   0.0000000), wk =   0.0493827
        k(   29) = (   0.3333333  -0.4444444   0.0000000), wk =   0.0493827
        k(   30) = (   0.3333333  -0.3333333   0.0000000), wk =   0.0493827
        k(   31) = (   0.3333333  -0.2222222   0.0000000), wk =   0.0493827
        k(   32) = (   0.3333333  -0.1111111   0.0000000), wk =   0.0493827
        k(   33) = (   0.4444444   0.0000000   0.0000000), wk =   0.0493827
        k(   34) = (   0.4444444   0.1111111   0.0000000), wk =   0.0493827
        k(   35) = (   0.4444444   0.2222222   0.0000000), wk =   0.0493827
        k(   36) = (   0.4444444   0.3333333   0.0000000), wk =   0.0493827
        k(   37) = (   0.4444444   0.4444444   0.0000000), wk =   0.0493827
        k(   38) = (   0.4444444  -0.4444444  -0.0000000), wk =   0.0493827
        k(   39) = (   0.4444444  -0.3333333   0.0000000), wk =   0.0493827
        k(   40) = (   0.4444444  -0.2222222   0.0000000), wk =   0.0493827
        k(   41) = (   0.4444444  -0.1111111   0.0000000), wk =   0.0493827

     Dense  grid:    88889 G-vectors     FFT dimensions: (  30,  30, 240)

     Smooth grid:    31423 G-vectors     FFT dimensions: (  24,  24, 162)

     Dynamical RAM for                 wfc:       1.14 MB

     Dynamical RAM for     wfc (w. buffer):      47.74 MB

     Dynamical RAM for           str. fact:       2.71 MB

     Dynamical RAM for           local pot:       0.00 MB

     Dynamical RAM for          nlocal pot:       2.87 MB

     Dynamical RAM for                qrad:       0.67 MB

     Dynamical RAM for          rho,v,vnew:       9.01 MB

     Dynamical RAM for               rhoin:       3.00 MB

     Dynamical RAM for            rho*nmix:      21.70 MB

     Dynamical RAM for           G-vectors:       5.33 MB

     Dynamical RAM for          h,s,v(r/c):       0.02 MB

     Dynamical RAM for          <psi|beta>:       0.01 MB

     Dynamical RAM for      wfcinit/wfcrot:       2.89 MB

     Dynamical RAM for           addusdens:      63.75 MB

     Dynamical RAM for          addusforce:      80.71 MB

     Dynamical RAM for         addusstress:      67.82 MB

     Estimated static dynamical RAM per process >     105.35 MB

     Estimated max dynamical RAM per process >     186.06 MB

     Check: negative core charge=   -0.000005

     Initial potential from superposition of free atoms

     starting charge   29.99983, renormalised to   30.00000

     negative rho (up, down):  5.058E-04 0.000E+00
     Starting wfcs are   24 randomized atomic wfcs
     Checking if some PAW data can be deallocated... 

     total cpu time spent up to now is        9.4 secs

     Self-consistent Calculation

     iteration #  1     ecut=    45.00 Ry     beta= 0.40
     CG style diagonalization
     ethr =  1.00E-02,  avg # of iterations =  3.0

     negative rho (up, down):  4.987E-04 0.000E+00

     total cpu time spent up to now is       19.2 secs

     total energy              =    -189.91408408 Ry
     Harris-Foulkes estimate   =    -190.04539973 Ry
     estimated scf accuracy    <       0.33855950 Ry

     iteration #  2     ecut=    45.00 Ry     beta= 0.40
     CG style diagonalization
     ethr =  1.13E-03,  avg # of iterations =  3.3

     negative rho (up, down):  5.772E-04 0.000E+00

     total cpu time spent up to now is       28.2 secs

     total energy              =    -189.93720261 Ry
     Harris-Foulkes estimate   =    -189.95836680 Ry
     estimated scf accuracy    <       0.05932712 Ry

     iteration #  3     ecut=    45.00 Ry     beta= 0.40
     CG style diagonalization
     ethr =  1.98E-04,  avg # of iterations =  3.4

     negative rho (up, down):  6.645E-04 0.000E+00

     total cpu time spent up to now is       38.4 secs

     total energy              =    -189.93899911 Ry
     Harris-Foulkes estimate   =    -189.94279414 Ry
     estimated scf accuracy    <       0.01065748 Ry

     iteration #  4     ecut=    45.00 Ry     beta= 0.40
     CG style diagonalization
     c_bands:  1 eigenvalues not converged
     c_bands:  1 eigenvalues not converged
     ethr =  3.55E-05,  avg # of iterations =  4.0

     negative rho (up, down):  6.620E-04 0.000E+00

     total cpu time spent up to now is       50.0 secs

     total energy              =    -189.94036244 Ry
     Harris-Foulkes estimate   =    -189.94066753 Ry
     estimated scf accuracy    <       0.00113509 Ry

     iteration #  5     ecut=    45.00 Ry     beta= 0.40
     CG style diagonalization
     c_bands:  1 eigenvalues not converged
     c_bands:  1 eigenvalues not converged
     c_bands:  1 eigenvalues not converged
     c_bands:  1 eigenvalues not converged
     c_bands:  1 eigenvalues not converged
     ethr =  3.78E-06,  avg # of iterations =  4.3

     negative rho (up, down):  6.482E-04 0.000E+00

     total cpu time spent up to now is       61.6 secs

     total energy              =    -189.94058271 Ry
     Harris-Foulkes estimate   =    -189.94063450 Ry
     estimated scf accuracy    <       0.00013245 Ry

     iteration #  6     ecut=    45.00 Ry     beta= 0.40
     CG style diagonalization
     ethr =  4.42E-07,  avg # of iterations =  3.9

     negative rho (up, down):  6.437E-04 0.000E+00

     total cpu time spent up to now is       72.5 secs

     total energy              =    -189.94061422 Ry
     Harris-Foulkes estimate   =    -189.94062677 Ry
     estimated scf accuracy    <       0.00004096 Ry

     iteration #  7     ecut=    45.00 Ry     beta= 0.40
     CG style diagonalization
     ethr =  1.37E-07,  avg # of iterations =  3.6

     negative rho (up, down):  6.409E-04 0.000E+00

     total cpu time spent up to now is       82.1 secs

     total energy              =    -189.94062236 Ry
     Harris-Foulkes estimate   =    -189.94062256 Ry
     estimated scf accuracy    <       0.00000098 Ry

     iteration #  8     ecut=    45.00 Ry     beta= 0.40
     CG style diagonalization
     ethr =  3.26E-09,  avg # of iterations =  4.2

     negative rho (up, down):  6.397E-04 0.000E+00

     total cpu time spent up to now is       93.6 secs

     total energy              =    -189.94062297 Ry
     Harris-Foulkes estimate   =    -189.94062299 Ry
     estimated scf accuracy    <       0.00000012 Ry

     iteration #  9     ecut=    45.00 Ry     beta= 0.40
     CG style diagonalization
     ethr =  4.16E-10,  avg # of iterations =  3.6

     negative rho (up, down):  6.396E-04 0.000E+00

     total cpu time spent up to now is      103.7 secs

     total energy              =    -189.94062300 Ry
     Harris-Foulkes estimate   =    -189.94062301 Ry
     estimated scf accuracy    <       0.00000004 Ry

     iteration # 10     ecut=    45.00 Ry     beta= 0.40
     CG style diagonalization
     ethr =  1.24E-10,  avg # of iterations =  3.7

     negative rho (up, down):  6.396E-04 0.000E+00

     total cpu time spent up to now is      114.5 secs

     total energy              =    -189.94062301 Ry
     Harris-Foulkes estimate   =    -189.94062302 Ry
     estimated scf accuracy    <       0.00000002 Ry

     iteration # 11     ecut=    45.00 Ry     beta= 0.40
     CG style diagonalization
     ethr =  6.25E-11,  avg # of iterations =  3.2

     negative rho (up, down):  6.396E-04 0.000E+00

     total cpu time spent up to now is      124.7 secs

     total energy              =    -189.94062301 Ry
     Harris-Foulkes estimate   =    -189.94062301 Ry
     estimated scf accuracy    <          2.5E-09 Ry

     iteration # 12     ecut=    45.00 Ry     beta= 0.40
     CG style diagonalization
     ethr =  8.47E-12,  avg # of iterations =  3.5

     negative rho (up, down):  6.398E-04 0.000E+00

     total cpu time spent up to now is      135.9 secs

     End of self-consistent calculation

          k = 0.0000 0.0000 0.0000 (  3897 PWs)   bands (ev):

   -27.2861 -27.2383 -21.4630 -18.0388 -12.1197  -9.3981  -6.2229  -5.8041
    -5.8041  -5.5417  -5.5416  -3.2695  -3.2695  -2.0119  -2.0119   1.9641
     4.3214   4.6323   4.6323

     occupation numbers 
     1.0000   1.0000   1.0000   1.0000   1.0000   1.0000   1.0000   1.0000
     1.0000   1.0000   1.0000   1.0000   1.0000   1.0000   1.0000   0.0000
     0.0000   0.0000   0.0000

          k = 0.0000 0.1283-0.0000 (  3895 PWs)   bands (ev):

   -27.1772 -27.1346 -21.2039 -17.8184 -11.9571  -9.3571  -6.9130  -6.4187
    -6.1355  -5.9079  -5.7240  -3.9519  -3.5558  -2.8849  -2.3192   2.4968
     4.1680   5.2799   5.3630

     occupation numbers 
     1.0000   1.0000   1.0000   1.0000   1.0000   1.0000   1.0000   1.0000
     1.0000   1.0000   1.0000   1.0000   1.0000   1.0000   1.0000   0.0000
     0.0000   0.0000   0.0000

          k = 0.0000 0.2566-0.0000 (  3920 PWs)   bands (ev):

   -26.8919 -26.8623 -20.4293 -17.1634 -11.5448  -9.4988  -8.8771  -8.0402
    -6.9127  -6.6148  -6.2061  -4.7800  -4.3824  -4.0159  -2.9297   2.8894
     4.0957   5.7894   6.7446

     occupation numbers 
     1.0000   1.0000   1.0000   1.0000   1.0000   1.0000   1.0000   1.0000
     1.0000   1.0000   1.0000   1.0000   1.0000   1.0000   1.0000   0.0000
     0.0000   0.0000   0.0000

          k = 0.0000 0.3849-0.0000 (  3937 PWs)   bands (ev):

   -26.5485 -26.5332 -19.1561 -16.0998 -12.1969 -10.8565 -10.1798  -8.8784
    -7.6855  -7.4094  -6.7498  -5.9477  -4.9702  -4.3573  -3.4253   2.6787
     4.3795   5.5026   7.2020

     occupation numbers 
     1.0000   1.0000   1.0000   1.0000   1.0000   1.0000   1.0000   1.0000
     1.0000   1.0000   1.0000   1.0000   1.0000   1.0000   1.0000   0.0000
     0.0000   0.0000   0.0000

          k = 0.0000 0.5132-0.0000 (  3951 PWs)   bands (ev):

   -26.3114 -26.3065 -17.5103 -15.0293 -14.2225 -12.5608  -9.9423  -9.1834
    -8.1346  -7.7752  -7.0919  -6.7107  -5.2197  -4.5375  -3.6810   2.6861
     4.0940   4.9961   7.5931

     occupation numbers 
     1.0000   1.0000   1.0000   1.0000   1.0000   1.0000   1.0000   1.0000
     1.0000   1.0000   1.0000   1.0000   1.0000   1.0000   1.0000   0.0000
     0.0000   0.0000   0.0000

          k = 0.1111-0.0642-0.0000 (  3895 PWs)   bands (ev):

   -27.1772 -27.1346 -21.2039 -17.8184 -11.9571  -9.3571  -6.9130  -6.4187
    -6.1355  -5.9079  -5.7240  -3.9519  -3.5558  -2.8849  -2.3192   2.4968
     4.1680   5.2799   5.3625

     occupation numbers 
     1.0000   1.0000   1.0000   1.0000   1.0000   1.0000   1.0000   1.0000
     1.0000   1.0000   1.0000   1.0000   1.0000   1.0000   1.0000   0.0000
     0.0000   0.0000   0.0000

          k = 0.1111 0.0642-0.0000 (  3895 PWs)   bands (ev):

   -27.1772 -27.1346 -21.2039 -17.8184 -11.9571  -9.3571  -6.9130  -6.4187
    -6.1355  -5.9079  -5.7240  -3.9519  -3.5558  -2.8849  -2.3192   2.4967
     4.1680   5.2799   5.3626

     occupation numbers 
     1.0000   1.0000   1.0000   1.0000   1.0000   1.0000   1.0000   1.0000
     1.0000   1.0000   1.0000   1.0000   1.0000   1.0000   1.0000   0.0000
     0.0000   0.0000   0.0000

          k = 0.1111 0.1925-0.0000 (  3901 PWs)   bands (ev):

   -26.9799 -26.9464 -20.6868 -17.3805 -11.6636  -9.3438  -8.1092  -7.4671
    -7.0575  -6.5614  -5.9246  -4.4389  -4.3421  -3.5445  -3.0829   3.2242
     4.2936   5.6550   6.2841

     occupation numbers 
     1.0000   1.0000   1.0000   1.0000   1.0000   1.0000   1.0000   1.0000
     1.0000   1.0000   1.0000   1.0000   1.0000   1.0000   1.0000   0.0000
     0.0000   0.0000   0.0000

          k = 0.1111 0.3208-0.0000 (  3923 PWs)   bands (ev):

   -26.6641 -26.6440 -19.6605 -16.5175 -11.3997 -10.2781  -9.6396  -8.6196
    -8.1085  -7.4579  -6.5590  -5.5131  -4.7394  -4.3151  -3.7283   3.6984
     4.5799   6.4020   6.9177

     occupation numbers 
     1.0000   1.0000   1.0000   1.0000   1.0000   1.0000   1.0000   1.0000
     1.0000   1.0000   1.0000   1.0000   1.0000   1.0000   1.0000   0.0000
     0.0000   0.0000   0.0000

          k = 0.1111 0.4491-0.0000 (  3939 PWs)   bands (ev):

   -26.3711 -26.3626 -18.1685 -15.2925 -13.2657 -11.5781 -10.0697  -9.1534
    -8.7046  -7.8827  -7.3464  -6.3293  -5.2721  -4.5593  -4.0643   3.6878
     4.7863   6.0194   7.4252

     occupation numbers 
     1.0000   1.0000   1.0000   1.0000   1.0000   1.0000   1.0000   1.0000
     1.0000   1.0000   1.0000   1.0000   1.0000   1.0000   1.0000   0.0000
     0.0000   0.0000   0.0000

          k = 0.1111-0.5774 0.0000 (  3940 PWs)   bands (ev):

   -26.2502 -26.2478 -16.8119 -15.2255 -13.7491 -13.1069  -9.8044  -9.3328
    -8.9658  -7.8410  -7.7848  -6.6506  -5.4674  -4.6223  -4.1862   4.0308
     4.1694   5.9758   7.5630

     occupation numbers 
     1.0000   1.0000   1.0000   1.0000   1.0000   1.0000   1.0000   1.0000
     1.0000   1.0000   1.0000   1.0000   1.0000   1.0000   1.0000   0.0000
     0.0000   0.0000   0.0000

          k = 0.1111-0.4491 0.0000 (  3939 PWs)   bands (ev):

   -26.3711 -26.3626 -18.1685 -15.2925 -13.2657 -11.5781 -10.0697  -9.1534
    -8.7046  -7.8827  -7.3464  -6.3293  -5.2721  -4.5593  -4.0643   3.6879
     4.7863   6.0193   7.4252

     occupation numbers 
     1.0000   1.0000   1.0000   1.0000   1.0000   1.0000   1.0000   1.0000
     1.0000   1.0000   1.0000   1.0000   1.0000   1.0000   1.0000   0.0000
     0.0000   0.0000   0.0000

          k = 0.1111-0.3208 0.0000 (  3923 PWs)   bands (ev):

   -26.6641 -26.6439 -19.6605 -16.5175 -11.3997 -10.2781  -9.6396  -8.6196
    -8.1085  -7.4579  -6.5590  -5.5131  -4.7394  -4.3151  -3.7283   3.6984
     4.5799   6.4021   6.9176

     occupation numbers 
     1.0000   1.0000   1.0000   1.0000   1.0000   1.0000   1.0000   1.0000
     1.0000   1.0000   1.0000   1.0000   1.0000   1.0000   1.0000   0.0000
     0.0000   0.0000   0.0000

          k = 0.1111-0.1925 0.0000 (  3901 PWs)   bands (ev):

   -26.9799 -26.9464 -20.6868 -17.3805 -11.6636  -9.3438  -8.1092  -7.4671
    -7.0575  -6.5614  -5.9245  -4.4389  -4.3421  -3.5445  -3.0829   3.2242
     4.2936   5.6550   6.2839

     occupation numbers 
     1.0000   1.0000   1.0000   1.0000   1.0000   1.0000   1.0000   1.0000
     1.0000   1.0000   1.0000   1.0000   1.0000   1.0000   1.0000   0.0000
     0.0000   0.0000   0.0000

          k = 0.2222-0.1283-0.0000 (  3920 PWs)   bands (ev):

   -26.8919 -26.8623 -20.4293 -17.1634 -11.5448  -9.4988  -8.8771  -8.0402
    -6.9127  -6.6148  -6.2061  -4.7800  -4.3824  -4.0159  -2.9297   2.8894
     4.0957   5.7895   6.7445

     occupation numbers 
     1.0000   1.0000   1.0000   1.0000   1.0000   1.0000   1.0000   1.0000
     1.0000   1.0000   1.0000   1.0000   1.0000   1.0000   1.0000   0.0000
     0.0000   0.0000   0.0000

          k = 0.2222-0.0000-0.0000 (  3901 PWs)   bands (ev):

   -26.9799 -26.9464 -20.6868 -17.3805 -11.6636  -9.3438  -8.1092  -7.4671
    -7.0575  -6.5614  -5.9246  -4.4389  -4.3421  -3.5445  -3.0829   3.2242
     4.2936   5.6550   6.2838

     occupation numbers 
     1.0000   1.0000   1.0000   1.0000   1.0000   1.0000   1.0000   1.0000
     1.0000   1.0000   1.0000   1.0000   1.0000   1.0000   1.0000   0.0000
     0.0000   0.0000   0.0000

          k = 0.2222 0.1283-0.0000 (  3921 PWs)   bands (ev):

   -26.8919 -26.8623 -20.4293 -17.1634 -11.5448  -9.4988  -8.8771  -8.0401
    -6.9127  -6.6148  -6.2061  -4.7800  -4.3824  -4.0159  -2.9297   2.8894
     4.0957   5.7895   6.7446

     occupation numbers 
     1.0000   1.0000   1.0000   1.0000   1.0000   1.0000   1.0000   1.0000
     1.0000   1.0000   1.0000   1.0000   1.0000   1.0000   1.0000   0.0000
     0.0000   0.0000   0.0000

          k = 0.2222 0.2566-0.0000 (  3923 PWs)   bands (ev):

   -26.6641 -26.6440 -19.6605 -16.5175 -11.3997 -10.2781  -9.6396  -8.6196
    -8.1085  -7.4580  -6.5591  -5.5131  -4.7394  -4.3151  -3.7283   3.6984
     4.5798   6.4019   6.9176

     occupation numbers 
     1.0000   1.0000   1.0000   1.0000   1.0000   1.0000   1.0000   1.0000
     1.0000   1.0000   1.0000   1.0000   1.0000   1.0000   1.0000   0.0000
     0.0000   0.0000   0.0000

          k = 0.2222 0.3849-0.0000 (  3911 PWs)   bands (ev):

   -26.3960 -26.3859 -18.4034 -15.4681 -12.2180 -11.2078 -10.0519  -9.3011
    -9.2953  -8.4506  -7.2335  -6.1828  -5.0746  -4.7933  -4.4737   4.5686
     5.4298   6.7749   8.2294

     occupation numbers 
     1.0000   1.0000   1.0000   1.0000   1.0000   1.0000   1.0000   1.0000
     1.0000   1.0000   1.0000   1.0000   1.0000   1.0000   1.0000   0.0000
     0.0000   0.0000   0.0000

          k = 0.2222-0.6415 0.0000 (  3930 PWs)   bands (ev):

   -26.2151 -26.2119 -16.8071 -14.3750 -13.7300 -12.4930 -10.6346  -9.9460
    -9.2969  -8.5344  -7.9579  -6.3550  -5.6969  -5.0635  -4.6319   4.5777
     5.8347   7.1306   7.9915

     occupation numbers 
     1.0000   1.0000   1.0000   1.0000   1.0000   1.0000   1.0000   1.0000
     1.0000   1.0000   1.0000   1.0000   1.0000   1.0000   1.0000   0.0000
     0.0000   0.0000   0.0000

          k = 0.2222-0.5132 0.0000 (  3931 PWs)   bands (ev):

   -26.2151 -26.2119 -16.8071 -14.3750 -13.7300 -12.4930 -10.6346  -9.9460
    -9.2970  -8.5344  -7.9579  -6.3550  -5.6970  -5.0635  -4.6319   4.5777
     5.8347   7.1306   7.9916

     occupation numbers 
     1.0000   1.0000   1.0000   1.0000   1.0000   1.0000   1.0000   1.0000
     1.0000   1.0000   1.0000   1.0000   1.0000   1.0000   1.0000   0.0000
     0.0000   0.0000   0.0000

          k = 0.2222-0.3849 0.0000 (  3911 PWs)   bands (ev):

   -26.3960 -26.3859 -18.4034 -15.4681 -12.2180 -11.2078 -10.0519  -9.3011
    -9.2953  -8.4506  -7.2335  -6.1828  -5.0746  -4.7933  -4.4737   4.5687
     5.4298   6.7749   8.2290

     occupation numbers 
     1.0000   1.0000   1.0000   1.0000   1.0000   1.0000   1.0000   1.0000
     1.0000   1.0000   1.0000   1.0000   1.0000   1.0000   1.0000   0.0000
     0.0000   0.0000   0.0000

          k = 0.2222-0.2566-0.0000 (  3923 PWs)   bands (ev):

   -26.6641 -26.6439 -19.6605 -16.5175 -11.3997 -10.2781  -9.6396  -8.6196
    -8.1085  -7.4580  -6.5590  -5.5131  -4.7394  -4.3151  -3.7283   3.6984
     4.5799   6.4020   6.9176

     occupation numbers 
     1.0000   1.0000   1.0000   1.0000   1.0000   1.0000   1.0000   1.0000
     1.0000   1.0000   1.0000   1.0000   1.0000   1.0000   1.0000   0.0000
     0.0000   0.0000   0.0000

          k = 0.3333-0.1925-0.0000 (  3937 PWs)   bands (ev):

   -26.5485 -26.5332 -19.1561 -16.0998 -12.1969 -10.8565 -10.1798  -8.8784
    -7.6855  -7.4094  -6.7498  -5.9477  -4.9702  -4.3573  -3.4253   2.6787
     4.3795   5.5026   7.2019

     occupation numbers 
     1.0000   1.0000   1.0000   1.0000   1.0000   1.0000   1.0000   1.0000
     1.0000   1.0000   1.0000   1.0000   1.0000   1.0000   1.0000   0.0000
     0.0000   0.0000   0.0000

          k = 0.3333-0.0642-0.0000 (  3923 PWs)   bands (ev):

   -26.6641 -26.6440 -19.6605 -16.5175 -11.3997 -10.2781  -9.6396  -8.6196
    -8.1085  -7.4579  -6.5591  -5.5131  -4.7394  -4.3151  -3.7283   3.6984
     4.5799   6.4019   6.9176

     occupation numbers 
     1.0000   1.0000   1.0000   1.0000   1.0000   1.0000   1.0000   1.0000
     1.0000   1.0000   1.0000   1.0000   1.0000   1.0000   1.0000   0.0000
     0.0000   0.0000   0.0000

          k = 0.3333 0.0641-0.0000 (  3923 PWs)   bands (ev):

   -26.6641 -26.6440 -19.6605 -16.5175 -11.3997 -10.2781  -9.6396  -8.6196
    -8.1085  -7.4580  -6.5591  -5.5131  -4.7394  -4.3151  -3.7283   3.6984
     4.5798   6.4020   6.9177

     occupation numbers 
     1.0000   1.0000   1.0000   1.0000   1.0000   1.0000   1.0000   1.0000
     1.0000   1.0000   1.0000   1.0000   1.0000   1.0000   1.0000   0.0000
     0.0000   0.0000   0.0000

          k = 0.3333 0.1925-0.0000 (  3937 PWs)   bands (ev):

   -26.5485 -26.5332 -19.1561 -16.0998 -12.1969 -10.8565 -10.1798  -8.8784
    -7.6855  -7.4094  -6.7498  -5.9477  -4.9702  -4.3573  -3.4253   2.6786
     4.3794   5.5026   7.2021

     occupation numbers 
     1.0000   1.0000   1.0000   1.0000   1.0000   1.0000   1.0000   1.0000
     1.0000   1.0000   1.0000   1.0000   1.0000   1.0000   1.0000   0.0000
     0.0000   0.0000   0.0000

          k = 0.3333 0.3208-0.0000 (  3939 PWs)   bands (ev):

   -26.3711 -26.3626 -18.1685 -15.2925 -13.2657 -11.5781 -10.0697  -9.1534
    -8.7046  -7.8827  -7.3464  -6.3293  -5.2721  -4.5593  -4.0643   3.6878
     4.7863   6.0194   7.4253

     occupation numbers 
     1.0000   1.0000   1.0000   1.0000   1.0000   1.0000   1.0000   1.0000
     1.0000   1.0000   1.0000   1.0000   1.0000   1.0000   1.0000   0.0000
     0.0000   0.0000   0.0000

          k = 0.3333-0.7057 0.0000 (  3931 PWs)   bands (ev):

   -26.2151 -26.2119 -16.8071 -14.3750 -13.7300 -12.4930 -10.6346  -9.9460
    -9.2969  -8.5344  -7.9579  -6.3549  -5.6970  -5.0635  -4.6319   4.5776
     5.8348   7.1306   7.9916

     occupation numbers 
     1.0000   1.0000   1.0000   1.0000   1.0000   1.0000   1.0000   1.0000
     1.0000   1.0000   1.0000   1.0000   1.0000   1.0000   1.0000   0.0000
     0.0000   0.0000   0.0000

          k = 0.3333-0.5774 0.0000 (  3885 PWs)   bands (ev):

   -26.1530 -26.1528 -15.8348 -13.9607 -13.9607 -12.8625 -11.0850 -11.0849
    -8.6673  -8.6330  -8.6329  -5.9256  -5.8590  -5.8590  -4.6675   5.1511
     5.1511   8.3639   9.0436

     occupation numbers 
     1.0000   1.0000   1.0000   1.0000   1.0000   1.0000   1.0000   1.0000
     1.0000   1.0000   1.0000   1.0000   1.0000   1.0000   1.0000   0.0000
     0.0000   0.0000   0.0000

          k = 0.3333-0.4491-0.0000 (  3931 PWs)   bands (ev):

   -26.2151 -26.2119 -16.8071 -14.3750 -13.7300 -12.4930 -10.6346  -9.9460
    -9.2970  -8.5344  -7.9579  -6.3550  -5.6970  -5.0635  -4.6319   4.5777
     5.8347   7.1306   7.9918

     occupation numbers 
     1.0000   1.0000   1.0000   1.0000   1.0000   1.0000   1.0000   1.0000
     1.0000   1.0000   1.0000   1.0000   1.0000   1.0000   1.0000   0.0000
     0.0000   0.0000   0.0000

          k = 0.3333-0.3208-0.0000 (  3939 PWs)   bands (ev):

   -26.3711 -26.3626 -18.1685 -15.2925 -13.2657 -11.5781 -10.0697  -9.1534
    -8.7046  -7.8827  -7.3464  -6.3293  -5.2721  -4.5593  -4.0643   3.6879
     4.7863   6.0194   7.4253

     occupation numbers 
     1.0000   1.0000   1.0000   1.0000   1.0000   1.0000   1.0000   1.0000
     1.0000   1.0000   1.0000   1.0000   1.0000   1.0000   1.0000   0.0000
     0.0000   0.0000   0.0000

          k = 0.4444-0.2566-0.0000 (  3951 PWs)   bands (ev):

   -26.3114 -26.3065 -17.5103 -15.0293 -14.2225 -12.5608  -9.9423  -9.1834
    -8.1346  -7.7752  -7.0919  -6.7107  -5.2197  -4.5375  -3.6810   2.6861
     4.0939   4.9961   7.5926

     occupation numbers 
     1.0000   1.0000   1.0000   1.0000   1.0000   1.0000   1.0000   1.0000
     1.0000   1.0000   1.0000   1.0000   1.0000   1.0000   1.0000   0.0000
     0.0000   0.0000   0.0000

          k = 0.4444-0.1283-0.0000 (  3939 PWs)   bands (ev):

   -26.3711 -26.3626 -18.1685 -15.2925 -13.2658 -11.5781 -10.0697  -9.1534
    -8.7046  -7.8827  -7.3464  -6.3293  -5.2721  -4.5593  -4.0643   3.6878
     4.7863   6.0194   7.4253

     occupation numbers 
     1.0000   1.0000   1.0000   1.0000   1.0000   1.0000   1.0000   1.0000
     1.0000   1.0000   1.0000   1.0000   1.0000   1.0000   1.0000   0.0000
     0.0000   0.0000   0.0000

          k = 0.4444-0.0000-0.0000 (  3911 PWs)   bands (ev):

   -26.3960 -26.3859 -18.4034 -15.4681 -12.2180 -11.2077 -10.0519  -9.3011
    -9.2953  -8.4506  -7.2336  -6.1828  -5.0746  -4.7933  -4.4737   4.5686
     5.4298   6.7749   8.2291

     occupation numbers 
     1.0000   1.0000   1.0000   1.0000   1.0000   1.0000   1.0000   1.0000
     1.0000   1.0000   1.0000   1.0000   1.0000   1.0000   1.0000   0.0000
     0.0000   0.0000   0.0000

          k = 0.4444 0.1283-0.0000 (  3939 PWs)   bands (ev):

   -26.3711 -26.3626 -18.1685 -15.2925 -13.2657 -11.5781 -10.0697  -9.1534
    -8.7046  -7.8827  -7.3464  -6.3293  -5.2721  -4.5593  -4.0643   3.6878
     4.7862   6.0194   7.4254

     occupation numbers 
     1.0000   1.0000   1.0000   1.0000   1.0000   1.0000   1.0000   1.0000
     1.0000   1.0000   1.0000   1.0000   1.0000   1.0000   1.0000   0.0000
     0.0000   0.0000   0.0000

          k = 0.4444 0.2566-0.0000 (  3951 PWs)   bands (ev):

   -26.3114 -26.3065 -17.5103 -15.0293 -14.2225 -12.5608  -9.9423  -9.1834
    -8.1346  -7.7752  -7.0919  -6.7107  -5.2197  -4.5375  -3.6810   2.6860
     4.0939   4.9961   7.5927

     occupation numbers 
     1.0000   1.0000   1.0000   1.0000   1.0000   1.0000   1.0000   1.0000
     1.0000   1.0000   1.0000   1.0000   1.0000   1.0000   1.0000   0.0000
     0.0000   0.0000   0.0000

          k = 0.4444-0.7698 0.0000 (  3940 PWs)   bands (ev):

   -26.2503 -26.2478 -16.8119 -15.2255 -13.7490 -13.1069  -9.8044  -9.3328
    -8.9658  -7.8411  -7.7848  -6.6506  -5.4674  -4.6223  -4.1862   4.0308
     4.1693   5.9759   7.5631

     occupation numbers 
     1.0000   1.0000   1.0000   1.0000   1.0000   1.0000   1.0000   1.0000
     1.0000   1.0000   1.0000   1.0000   1.0000   1.0000   1.0000   0.0000
     0.0000   0.0000   0.0000

          k = 0.4444-0.6415-0.0000 (  3931 PWs)   bands (ev):

   -26.2151 -26.2119 -16.8071 -14.3750 -13.7300 -12.4930 -10.6346  -9.9460
    -9.2969  -8.5344  -7.9579  -6.3549  -5.6970  -5.0635  -4.6319   4.5776
     5.8348   7.1306   7.9918

     occupation numbers 
     1.0000   1.0000   1.0000   1.0000   1.0000   1.0000   1.0000   1.0000
     1.0000   1.0000   1.0000   1.0000   1.0000   1.0000   1.0000   0.0000
     0.0000   0.0000   0.0000

          k = 0.4444-0.5132-0.0000 (  3930 PWs)   bands (ev):

   -26.2151 -26.2119 -16.8071 -14.3750 -13.7300 -12.4930 -10.6346  -9.9460
    -9.2969  -8.5344  -7.9579  -6.3550  -5.6969  -5.0635  -4.6319   4.5777
     5.8348   7.1306   7.9917

     occupation numbers 
     1.0000   1.0000   1.0000   1.0000   1.0000   1.0000   1.0000   1.0000
     1.0000   1.0000   1.0000   1.0000   1.0000   1.0000   1.0000   0.0000
     0.0000   0.0000   0.0000

          k = 0.4444-0.3849-0.0000 (  3940 PWs)   bands (ev):

   -26.2502 -26.2478 -16.8119 -15.2255 -13.7490 -13.1069  -9.8044  -9.3328
    -8.9658  -7.8411  -7.7848  -6.6506  -5.4674  -4.6223  -4.1862   4.0308
     4.1694   5.9759   7.5630

     occupation numbers 
     1.0000   1.0000   1.0000   1.0000   1.0000   1.0000   1.0000   1.0000
     1.0000   1.0000   1.0000   1.0000   1.0000   1.0000   1.0000   0.0000
     0.0000   0.0000   0.0000

     the Fermi energy is     0.2333 ev

!    total energy              =    -189.94062301 Ry
     Harris-Foulkes estimate   =    -189.94062302 Ry
     estimated scf accuracy    <          1.2E-10 Ry

     total all-electron energy =      -701.912738 Ry

     The total energy is the sum of the following terms:

     one-electron contribution =   -1506.89685906 Ry
     hartree contribution      =     763.09629052 Ry
     xc contribution           =     -37.16253406 Ry
     ewald contribution        =     636.01910727 Ry
     one-center paw contrib.   =     -44.99662768 Ry
      -> PAW hartree energy AE =     117.52093161 Ry
      -> PAW hartree energy PS =    -117.44123707 Ry
      -> PAW xc energy AE      =     -80.45715748 Ry
      -> PAW xc energy PS      =      35.38083526 Ry
      -> total E_H with PAW    =     763.17598505 Ry
      -> total E_XC with PAW   =     -82.23885628 Ry
     smearing contrib. (-TS)   =      -0.00000000 Ry

     convergence has been achieved in  12 iterations

     negative rho (up, down):  6.398E-04 0.000E+00

     Forces acting on atoms (cartesian axes, Ry/au):

     atom    1 type  1   force =    -0.00000136   -0.00000136   -0.00920011
     atom    2 type  1   force =    -0.00000355   -0.00000261    0.00041287
     atom    3 type  1   force =     0.00000080    0.00000099    0.00919898
     atom    4 type  1   force =     0.00000244    0.00000199   -0.00046501
     atom    5 type  2   force =     0.00000266    0.00000194    0.01753036
     atom    6 type  2   force =    -0.00000099   -0.00000096   -0.01747708
     The non-local contrib.  to forces
     atom    1 type  1   force =    -0.00000483   -0.00000426   -0.40580451
     atom    2 type  1   force =    -0.00000601   -0.00000447    0.08407767
     atom    3 type  1   force =     0.00000288    0.00000312    0.40582202
     atom    4 type  1   force =     0.00000349    0.00000310   -0.08409106
     atom    5 type  2   force =     0.00004205    0.00003119    3.17140244
     atom    6 type  2   force =    -0.00001655   -0.00001664   -3.17137821
     The ionic contribution  to forces
     atom    1 type  1   force =     0.00006601    0.00004732  -13.36767802
     atom    2 type  1   force =    -0.00000457    0.00000014   -9.40120984
     atom    3 type  1   force =    -0.00002607   -0.00002490   13.36783775
     atom    4 type  1   force =    -0.00000452   -0.00000517    9.40118888
     atom    5 type  2   force =    -0.00005247   -0.00003943  -66.85280486
     atom    6 type  2   force =     0.00002161    0.00002204   66.85266609
     The local contribution  to forces
     atom    1 type  1   force =    -0.00006233   -0.00004435   13.75585026
     atom    2 type  1   force =     0.00000710    0.00000178    9.31882347
     atom    3 type  1   force =     0.00002380    0.00002273  -13.75601808
     atom    4 type  1   force =     0.00000320    0.00000390   -9.31876957
     atom    5 type  2   force =     0.00001329    0.00001031   63.70912468
     atom    6 type  2   force =    -0.00000588   -0.00000629  -63.70902262
     The core correction contribution to forces
     atom    1 type  1   force =    -0.00000013   -0.00000006    0.00838957
     atom    2 type  1   force =     0.00000006    0.00000004   -0.00131193
     atom    3 type  1   force =     0.00000027    0.00000015   -0.00847081
     atom    4 type  1   force =     0.00000031    0.00000018    0.00116939
     atom    5 type  2   force =    -0.00000013   -0.00000010   -0.01024704
     atom    6 type  2   force =     0.00000002    0.00000004    0.01024592
     The Hubbard contrib.    to forces
     atom    1 type  1   force =     0.00000000    0.00000000    0.00000000
     atom    2 type  1   force =     0.00000000    0.00000000    0.00000000
     atom    3 type  1   force =     0.00000000    0.00000000    0.00000000
     atom    4 type  1   force =     0.00000000    0.00000000    0.00000000
     atom    5 type  2   force =     0.00000000    0.00000000    0.00000000
     atom    6 type  2   force =     0.00000000    0.00000000    0.00000000
     The SCF correction term to forces
     atom    1 type  1   force =     0.00000000    0.00000004    0.00000695
     atom    2 type  1   force =    -0.00000006   -0.00000003   -0.00000215
     atom    3 type  1   force =    -0.00000001   -0.00000005   -0.00000754
     atom    4 type  1   force =     0.00000004    0.00000004    0.00000170
     atom    5 type  2   force =    -0.00000001    0.00000003    0.00001949
     atom    6 type  2   force =    -0.00000011   -0.00000005   -0.00002390

     Total force =     0.027972     Total SCF correction =     0.000033


     Computing stress (Cartesian axis) and pressure


     negative rho (up, down):  6.398E-04 0.000E+00
          total   stress  (Ry/bohr**3)                   (kbar)     P=  -23.27
  -0.00014803  -0.00000000  -0.00000001        -21.78     -0.00     -0.00
  -0.00000000  -0.00014802  -0.00000001         -0.00    -21.77     -0.00
  -0.00000001  -0.00000001  -0.00017848         -0.00     -0.00    -26.26

     kinetic stress (kbar)   9163.85     -0.00     -0.01
                               -0.00   9163.85     -0.01
                               -0.01     -0.01   8324.18

     local   stress (kbar)-286809.73      0.01     -0.02
                                0.01-286809.75     -0.02
                               -0.02     -0.02 276372.43

     nonloc. stress (kbar)   3143.04     -0.00     -0.00
                               -0.00   3143.05     -0.00
                               -0.00     -0.00   2879.62

     hartree stress (kbar) 141385.30     -0.00      0.01
                               -0.00 141385.31      0.00
                                0.01      0.00-136841.18

     exc-cor stress (kbar)  -1130.23     -0.00      0.00
                               -0.00  -1130.23      0.00
                                0.00      0.00  -1126.91

     corecor stress (kbar)   -939.38      0.00      0.00
                                0.00   -939.38      0.00
                                0.00      0.00   -931.71

     ewald   stress (kbar) 135165.36     -0.01      0.03
                               -0.01 135165.37      0.02
                                0.03      0.02-148702.69

     hubbard stress (kbar)      0.00      0.00      0.00
                                0.00      0.00      0.00
                                0.00      0.00      0.00

     london  stress (kbar)      0.00      0.00      0.00
                                0.00      0.00      0.00
                                0.00      0.00      0.00

     DFT-D3  stress (kbar)      0.00      0.00      0.00
                                0.00      0.00      0.00
                                0.00      0.00      0.00

     XDM     stress (kbar)      0.00      0.00      0.00
                                0.00      0.00      0.00
                                0.00      0.00      0.00

     dft-nl  stress (kbar)      0.00      0.00      0.00
                                0.00      0.00      0.00
                                0.00      0.00      0.00

     TS-vdW  stress (kbar)      0.00      0.00      0.00
                                0.00      0.00      0.00
                                0.00      0.00      0.00

     3D-RISM stress (kbar)      0.00      0.00      0.00
                                0.00      0.00      0.00
                                0.00      0.00      0.00



     Writing output data file pwscf.save\

     init_run     :     12.39s CPU      7.20s WALL (       1 calls)
     electrons    :    170.75s CPU    126.46s WALL (       1 calls)
     forces       :      7.34s CPU      1.73s WALL (       1 calls)
     stress       :     18.81s CPU      4.87s WALL (       1 calls)

     Called by init_run:
     wfcinit      :      3.44s CPU      2.13s WALL (       1 calls)
     wfcinit:atom :      0.17s CPU      0.06s WALL (      41 calls)
     wfcinit:wfcr :      2.80s CPU      1.65s WALL (      41 calls)
     potinit      :      3.91s CPU      0.73s WALL (       1 calls)
     hinit0       :      4.94s CPU      4.20s WALL (       1 calls)

     Called by electrons:
     c_bands      :    147.70s CPU    110.25s WALL (      12 calls)
     sum_band     :     16.64s CPU     11.94s WALL (      12 calls)
     v_of_rho     :      2.20s CPU      0.99s WALL (      13 calls)
     v_h          :      0.09s CPU      0.06s WALL (      13 calls)
     v_xc         :      2.33s CPU      1.11s WALL (      15 calls)
     newd         :      1.73s CPU      1.26s WALL (      13 calls)
     PAW_pot      :      2.56s CPU      1.99s WALL (      13 calls)
     mix_rho      :      0.27s CPU      0.22s WALL (      12 calls)

     Called by c_bands:
     init_us_2    :      2.12s CPU      0.88s WALL (    1107 calls)
     ccgdiagg     :    124.30s CPU     94.40s WALL (     492 calls)
     wfcrot       :     25.00s CPU     16.61s WALL (     492 calls)

     Called by sum_band:
     sum_band:bec :      0.22s CPU      0.35s WALL (     492 calls)
     addusdens    :      1.83s CPU      1.79s WALL (      12 calls)

     Called by *cgdiagg:
     h_psi        :    105.33s CPU     71.78s WALL (   26013 calls)
     s_psi        :     15.95s CPU     15.23s WALL (   51534 calls)
     cdiaghg      :      0.12s CPU      0.17s WALL (     492 calls)

     Called by h_psi:
     h_psi:pot    :    102.06s CPU     68.04s WALL (   26013 calls)
     h_psi:calbec :     12.84s CPU      9.19s WALL (   26013 calls)
     vloc_psi     :     78.80s CPU     51.94s WALL (   26013 calls)
     add_vuspsi   :     10.00s CPU      6.80s WALL (   26013 calls)
     hs_1psi      :     96.36s CPU     69.30s WALL (   25521 calls)
     s_1psi       :     18.91s CPU     16.04s WALL (   25521 calls)

     General routines
     calbec       :     22.88s CPU     16.05s WALL (   52231 calls)
     fft          :      0.23s CPU      0.19s WALL (     192 calls)
     ffts         :      0.03s CPU      0.01s WALL (      25 calls)
     fftw         :     57.42s CPU     35.25s WALL (   79496 calls)
     interpolate  :      0.06s CPU      0.05s WALL (      13 calls)

     Parallel routines

     PAW routines
     PAW_pot      :      2.56s CPU      1.99s WALL (      13 calls)

     PWSCF        :   3m30.30s CPU   2m22.71s WALL


   This run was terminated on:  17:11:55  19Nov2024            

=------------------------------------------------------------------------------=
   JOB DONE.
=------------------------------------------------------------------------------=
