
     Program PWSCF v.6.4.1 starts on 19Nov2024 at 17:18: 4 

     This program is part of the open-source Quantum ESPRESSO suite
     for quantum simulation of materials; please cite
         "P. Giannozzi et al., J. Phys.:Condens. Matter 21 395502 (2009);
         "P. Giannozzi et al., J. Phys.:Condens. Matter 29 465901 (2017);
          URL http://www.quantum-espresso.org", 
     in publications or presentations arising from this work. More details at
     http://www.quantum-espresso.org/quote

     Parallel version (MPI & OpenMP), running on      12 processor cores
     Number of MPI processes:                 1
     Threads/MPI process:                    12

     MPI processes distributed on     1 nodes
     Waiting for input...
     Reading input from standard input

     Current dimensions of program PWSCF are:
     Max number of different atomic species (ntypx) = 10
     Max number of k-points (npk) =  40000
     Max angular momentum in pseudopotentials (lmaxx) =  3
               file C.pbesol-n-kjpaw_psl.1.0.0.UPF: wavefunction(s)  2S 2P renormalized
               file F.pbesol-n-kjpaw_psl.1.0.0.UPF: wavefunction(s)  2S 2P renormalized

     Subspace diagonalization in iterative solution of the eigenvalue problem:
     a serial algorithm will be used


     G-vector sticks info
     --------------------
     sticks:   dense  smooth     PW     G-vecs:    dense   smooth      PW
     Sum         583     295     97                88889    31423    6287



     bravais-lattice index     =            0
     lattice parameter (alat)  =       4.8507  a.u.
     unit-cell volume          =     769.2439 (a.u.)^3
     number of atoms/cell      =            6
     number of atomic types    =            2
     number of electrons       =        30.00
     number of Kohn-Sham states=           19
     kinetic-energy cutoff     =      45.0000  Ry
     charge density cutoff     =     360.0000  Ry
     convergence threshold     =      1.2E-09
     mixing beta               =       0.4000
     number of iterations used =            8  plain     mixing
     Exchange-correlation      = SLA PW PSX PSC ( 1  4 10  8 0 0)

     celldm(1)=   4.850737  celldm(2)=   0.000000  celldm(3)=   0.000000
     celldm(4)=   0.000000  celldm(5)=   0.000000  celldm(6)=   0.000000

     crystal axes: (cart. coord. in units of alat)
               a(1) = (   1.000000   0.000000   0.000000 )  
               a(2) = (   0.500000   0.866025   0.000000 )  
               a(3) = (   0.000640   0.000376   7.782340 )  

     reciprocal axes: (cart. coord. in units 2 pi/alat)
               b(1) = (  1.000000 -0.577350 -0.000054 )  
               b(2) = (  0.000000  1.154701 -0.000056 )  
               b(3) = (  0.000000  0.000000  0.128496 )  


     PseudoPot. # 1 for C  read from file:
     .\C.pbesol-n-kjpaw_psl.1.0.0.UPF
     MD5 check sum: f9b2fe17d1f478429498b05d17159f9e
     Pseudo is Projector augmented-wave + core cor, Zval =  4.0
     Generated using "atomic" code by A. Dal Corso v.6.3
     Shape of augmentation charge: PSQ
     Using radial grid of 1073 points,  4 beta functions with: 
                l(1) =   0
                l(2) =   0
                l(3) =   1
                l(4) =   1
     Q(r) pseudized with 0 coefficients 


     PseudoPot. # 2 for F  read from file:
     .\F.pbesol-n-kjpaw_psl.1.0.0.UPF
     MD5 check sum: d939582bcd23f1ece12cfc4fab8d9d36
     Pseudo is Projector augmented-wave + core cor, Zval =  7.0
     Generated using "atomic" code by A. Dal Corso v.6.3
     Shape of augmentation charge: PSQ
     Using radial grid of 1105 points,  4 beta functions with: 
                l(1) =   0
                l(2) =   0
                l(3) =   1
                l(4) =   1
     Q(r) pseudized with 0 coefficients 


     atomic species   valence    mass     pseudopotential
        C              4.00    12.01070     C ( 1.00)
        F              7.00    18.99840     F ( 1.00)

     No symmetry found


                                    s                        frac. trans.

      isym =  1     identity                                     

 cryst.   s( 1) = (     1          0          0      )
                  (     0          1          0      )
                  (     0          0          1      )

 cart.    s( 1) = (  1.0000000  0.0000000  0.0000000 )
                  (  0.0000000  1.0000000  0.0000000 )
                  (  0.0000000  0.0000000  1.0000000 )


   Cartesian axes

     site n.     atom                  positions (alat units)
         1           C   tau(   1) = (   0.0003519   0.0002070   3.9178512  )
         2           C   tau(   2) = (   0.5003526   0.2888824   4.1138039  )
         3           C   tau(   3) = (   1.0003491   0.5775541   4.9151223  )
         4           C   tau(   4) = (   0.5003488   0.2888789   4.7191654  )
         5           F   tau(   5) = (   0.0003452   0.0002019   3.3809522  )
         6           F   tau(   6) = (   1.0003518   0.5775569   5.4520245  )

   Crystallographic axes

     site n.     atom                  positions (cryst. coord.)
         1           C   tau(   1) = (  0.0000192  0.0000206  0.5034284  )
         2           C   tau(   2) = (  0.3333424  0.3333434  0.5286075  )
         3           C   tau(   3) = (  0.6666304  0.6666281  0.6315738  )
         4           C   tau(   4) = (  0.3333076  0.3333056  0.6063941  )
         5           F   tau(   5) = (  0.0000446  0.0000447  0.4344390  )
         6           F   tau(   6) = (  0.6666024  0.6666014  0.7005636  )

     number of k points=    74  Marzari-Vanderbilt smearing, width (Ry)=  0.0200
                       cart. coord. in units 2pi/alat
        k(    1) = (   0.0000000   0.0000000   0.0000000), wk =   0.0138889
        k(    2) = (   0.0000000   0.0962251  -0.0000046), wk =   0.0277778
        k(    3) = (   0.0000000   0.1924501  -0.0000093), wk =   0.0277778
        k(    4) = (   0.0000000   0.2886752  -0.0000139), wk =   0.0277778
        k(    5) = (   0.0000000   0.3849002  -0.0000186), wk =   0.0277778
        k(    6) = (   0.0000000   0.4811253  -0.0000232), wk =   0.0277778
        k(    7) = (   0.0000000  -0.5773503   0.0000279), wk =   0.0138889
        k(    8) = (   0.0833333  -0.0481125  -0.0000045), wk =   0.0277778
        k(    9) = (   0.0833333   0.0481125  -0.0000092), wk =   0.0277778
        k(   10) = (   0.0833333   0.1443376  -0.0000138), wk =   0.0277778
        k(   11) = (   0.0833333   0.2405626  -0.0000185), wk =   0.0277778
        k(   12) = (   0.0833333   0.3367877  -0.0000231), wk =   0.0277778
        k(   13) = (   0.0833333   0.4330127  -0.0000278), wk =   0.0277778
        k(   14) = (   0.0833333  -0.6254629   0.0000233), wk =   0.0277778
        k(   15) = (   0.0833333  -0.5292378   0.0000187), wk =   0.0277778
        k(   16) = (   0.0833333  -0.4330127   0.0000140), wk =   0.0277778
        k(   17) = (   0.0833333  -0.3367877   0.0000094), wk =   0.0277778
        k(   18) = (   0.0833333  -0.2405626   0.0000048), wk =   0.0277778
        k(   19) = (   0.0833333  -0.1443376   0.0000001), wk =   0.0277778
        k(   20) = (   0.1666667  -0.0962251  -0.0000091), wk =   0.0277778
        k(   21) = (   0.1666667  -0.0000000  -0.0000137), wk =   0.0277778
        k(   22) = (   0.1666667   0.0962250  -0.0000184), wk =   0.0277778
        k(   23) = (   0.1666667   0.1924501  -0.0000230), wk =   0.0277778
        k(   24) = (   0.1666667   0.2886751  -0.0000277), wk =   0.0277778
        k(   25) = (   0.1666667   0.3849002  -0.0000323), wk =   0.0277778
        k(   26) = (   0.1666667  -0.6735754   0.0000188), wk =   0.0277778
        k(   27) = (   0.1666667  -0.5773503   0.0000142), wk =   0.0277778
        k(   28) = (   0.1666667  -0.4811253   0.0000095), wk =   0.0277778
        k(   29) = (   0.1666667  -0.3849002   0.0000049), wk =   0.0277778
        k(   30) = (   0.1666667  -0.2886752   0.0000002), wk =   0.0277778
        k(   31) = (   0.1666667  -0.1924501  -0.0000044), wk =   0.0277778
        k(   32) = (   0.2500000  -0.1443376  -0.0000136), wk =   0.0277778
        k(   33) = (   0.2500000  -0.0481126  -0.0000183), wk =   0.0277778
        k(   34) = (   0.2500000   0.0481125  -0.0000229), wk =   0.0277778
        k(   35) = (   0.2500000   0.1443375  -0.0000275), wk =   0.0277778
        k(   36) = (   0.2500000   0.2405626  -0.0000322), wk =   0.0277778
        k(   37) = (   0.2500000   0.3367876  -0.0000368), wk =   0.0277778
        k(   38) = (   0.2500000  -0.7216879   0.0000143), wk =   0.0277778
        k(   39) = (   0.2500000  -0.6254629   0.0000096), wk =   0.0277778
        k(   40) = (   0.2500000  -0.5292378   0.0000050), wk =   0.0277778
        k(   41) = (   0.2500000  -0.4330128   0.0000003), wk =   0.0277778
        k(   42) = (   0.2500000  -0.3367877  -0.0000043), wk =   0.0277778
        k(   43) = (   0.2500000  -0.2405627  -0.0000090), wk =   0.0277778
        k(   44) = (   0.3333333  -0.1924501  -0.0000181), wk =   0.0277778
        k(   45) = (   0.3333333  -0.0962251  -0.0000228), wk =   0.0277778
        k(   46) = (   0.3333333  -0.0000000  -0.0000274), wk =   0.0277778
        k(   47) = (   0.3333333   0.0962250  -0.0000321), wk =   0.0277778
        k(   48) = (   0.3333333   0.1924501  -0.0000367), wk =   0.0277778
        k(   49) = (   0.3333333   0.2886751  -0.0000414), wk =   0.0277778
        k(   50) = (   0.3333333  -0.7698005   0.0000097), wk =   0.0277778
        k(   51) = (   0.3333333  -0.6735754   0.0000051), wk =   0.0277778
        k(   52) = (   0.3333333  -0.5773504   0.0000004), wk =   0.0277778
        k(   53) = (   0.3333333  -0.4811253  -0.0000042), wk =   0.0277778
        k(   54) = (   0.3333333  -0.3849003  -0.0000088), wk =   0.0277778
        k(   55) = (   0.3333333  -0.2886752  -0.0000135), wk =   0.0277778
        k(   56) = (   0.4166667  -0.2405627  -0.0000227), wk =   0.0277778
        k(   57) = (   0.4166667  -0.1443376  -0.0000273), wk =   0.0277778
        k(   58) = (   0.4166667  -0.0481126  -0.0000320), wk =   0.0277778
        k(   59) = (   0.4166667   0.0481125  -0.0000366), wk =   0.0277778
        k(   60) = (   0.4166667   0.1443375  -0.0000413), wk =   0.0277778
        k(   61) = (   0.4166667   0.2405626  -0.0000459), wk =   0.0277778
        k(   62) = (   0.4166667  -0.8179130   0.0000052), wk =   0.0277778
        k(   63) = (   0.4166667  -0.7216879   0.0000006), wk =   0.0277778
        k(   64) = (   0.4166667  -0.6254629  -0.0000041), wk =   0.0277778
        k(   65) = (   0.4166667  -0.5292378  -0.0000087), wk =   0.0277778
        k(   66) = (   0.4166667  -0.4330128  -0.0000134), wk =   0.0277778
        k(   67) = (   0.4166667  -0.3367877  -0.0000180), wk =   0.0277778
        k(   68) = (  -0.5000000   0.2886752   0.0000272), wk =   0.0138889
        k(   69) = (  -0.5000000   0.3849003   0.0000226), wk =   0.0277778
        k(   70) = (  -0.5000000   0.4811253   0.0000179), wk =   0.0277778
        k(   71) = (  -0.5000000   0.5773504   0.0000133), wk =   0.0277778
        k(   72) = (  -0.5000000   0.6735754   0.0000086), wk =   0.0277778
        k(   73) = (  -0.5000000   0.7698005   0.0000040), wk =   0.0277778
        k(   74) = (  -0.5000000  -0.2886751   0.0000551), wk =   0.0138889

                       cryst. coord.
        k(    1) = (   0.0000000   0.0000000   0.0000000), wk =   0.0138889
        k(    2) = (   0.0000000   0.0833333   0.0000000), wk =   0.0277778
        k(    3) = (   0.0000000   0.1666667   0.0000000), wk =   0.0277778
        k(    4) = (   0.0000000   0.2500000   0.0000000), wk =   0.0277778
        k(    5) = (   0.0000000   0.3333333   0.0000000), wk =   0.0277778
        k(    6) = (   0.0000000   0.4166667   0.0000000), wk =   0.0277778
        k(    7) = (   0.0000000  -0.5000000  -0.0000000), wk =   0.0138889
        k(    8) = (   0.0833333   0.0000000   0.0000000), wk =   0.0277778
        k(    9) = (   0.0833333   0.0833333   0.0000000), wk =   0.0277778
        k(   10) = (   0.0833333   0.1666667   0.0000000), wk =   0.0277778
        k(   11) = (   0.0833333   0.2500000   0.0000000), wk =   0.0277778
        k(   12) = (   0.0833333   0.3333333   0.0000000), wk =   0.0277778
        k(   13) = (   0.0833333   0.4166667   0.0000000), wk =   0.0277778
        k(   14) = (   0.0833333  -0.5000000   0.0000000), wk =   0.0277778
        k(   15) = (   0.0833333  -0.4166667   0.0000000), wk =   0.0277778
        k(   16) = (   0.0833333  -0.3333333   0.0000000), wk =   0.0277778
        k(   17) = (   0.0833333  -0.2500000   0.0000000), wk =   0.0277778
        k(   18) = (   0.0833333  -0.1666667   0.0000000), wk =   0.0277778
        k(   19) = (   0.0833333  -0.0833333   0.0000000), wk =   0.0277778
        k(   20) = (   0.1666667   0.0000000   0.0000000), wk =   0.0277778
        k(   21) = (   0.1666667   0.0833333   0.0000000), wk =   0.0277778
        k(   22) = (   0.1666667   0.1666667   0.0000000), wk =   0.0277778
        k(   23) = (   0.1666667   0.2500000   0.0000000), wk =   0.0277778
        k(   24) = (   0.1666667   0.3333333   0.0000000), wk =   0.0277778
        k(   25) = (   0.1666667   0.4166667   0.0000000), wk =   0.0277778
        k(   26) = (   0.1666667  -0.5000000   0.0000000), wk =   0.0277778
        k(   27) = (   0.1666667  -0.4166667   0.0000000), wk =   0.0277778
        k(   28) = (   0.1666667  -0.3333333   0.0000000), wk =   0.0277778
        k(   29) = (   0.1666667  -0.2500000   0.0000000), wk =   0.0277778
        k(   30) = (   0.1666667  -0.1666667   0.0000000), wk =   0.0277778
        k(   31) = (   0.1666667  -0.0833333   0.0000000), wk =   0.0277778
        k(   32) = (   0.2500000   0.0000000   0.0000000), wk =   0.0277778
        k(   33) = (   0.2500000   0.0833333   0.0000000), wk =   0.0277778
        k(   34) = (   0.2500000   0.1666667   0.0000000), wk =   0.0277778
        k(   35) = (   0.2500000   0.2500000   0.0000000), wk =   0.0277778
        k(   36) = (   0.2500000   0.3333333   0.0000000), wk =   0.0277778
        k(   37) = (   0.2500000   0.4166667   0.0000000), wk =   0.0277778
        k(   38) = (   0.2500000  -0.5000000   0.0000000), wk =   0.0277778
        k(   39) = (   0.2500000  -0.4166667   0.0000000), wk =   0.0277778
        k(   40) = (   0.2500000  -0.3333333   0.0000000), wk =   0.0277778
        k(   41) = (   0.2500000  -0.2500000   0.0000000), wk =   0.0277778
        k(   42) = (   0.2500000  -0.1666667   0.0000000), wk =   0.0277778
        k(   43) = (   0.2500000  -0.0833333   0.0000000), wk =   0.0277778
        k(   44) = (   0.3333333   0.0000000   0.0000000), wk =   0.0277778
        k(   45) = (   0.3333333   0.0833333   0.0000000), wk =   0.0277778
        k(   46) = (   0.3333333   0.1666667   0.0000000), wk =   0.0277778
        k(   47) = (   0.3333333   0.2500000   0.0000000), wk =   0.0277778
        k(   48) = (   0.3333333   0.3333333   0.0000000), wk =   0.0277778
        k(   49) = (   0.3333333   0.4166667   0.0000000), wk =   0.0277778
        k(   50) = (   0.3333333  -0.5000000   0.0000000), wk =   0.0277778
        k(   51) = (   0.3333333  -0.4166667   0.0000000), wk =   0.0277778
        k(   52) = (   0.3333333  -0.3333333   0.0000000), wk =   0.0277778
        k(   53) = (   0.3333333  -0.2500000   0.0000000), wk =   0.0277778
        k(   54) = (   0.3333333  -0.1666667   0.0000000), wk =   0.0277778
        k(   55) = (   0.3333333  -0.0833333   0.0000000), wk =   0.0277778
        k(   56) = (   0.4166667   0.0000000   0.0000000), wk =   0.0277778
        k(   57) = (   0.4166667   0.0833333   0.0000000), wk =   0.0277778
        k(   58) = (   0.4166667   0.1666667   0.0000000), wk =   0.0277778
        k(   59) = (   0.4166667   0.2500000   0.0000000), wk =   0.0277778
        k(   60) = (   0.4166667   0.3333333   0.0000000), wk =   0.0277778
        k(   61) = (   0.4166667   0.4166667   0.0000000), wk =   0.0277778
        k(   62) = (   0.4166667  -0.5000000  -0.0000000), wk =   0.0277778
        k(   63) = (   0.4166667  -0.4166667  -0.0000000), wk =   0.0277778
        k(   64) = (   0.4166667  -0.3333333   0.0000000), wk =   0.0277778
        k(   65) = (   0.4166667  -0.2500000   0.0000000), wk =   0.0277778
        k(   66) = (   0.4166667  -0.1666667   0.0000000), wk =   0.0277778
        k(   67) = (   0.4166667  -0.0833333   0.0000000), wk =   0.0277778
        k(   68) = (  -0.5000000   0.0000000  -0.0000000), wk =   0.0138889
        k(   69) = (  -0.5000000   0.0833333  -0.0000000), wk =   0.0277778
        k(   70) = (  -0.5000000   0.1666667  -0.0000000), wk =   0.0277778
        k(   71) = (  -0.5000000   0.2500000  -0.0000000), wk =   0.0277778
        k(   72) = (  -0.5000000   0.3333333  -0.0000000), wk =   0.0277778
        k(   73) = (  -0.5000000   0.4166667  -0.0000000), wk =   0.0277778
        k(   74) = (  -0.5000000  -0.5000000  -0.0000000), wk =   0.0138889

     Dense  grid:    88889 G-vectors     FFT dimensions: (  30,  30, 240)

     Smooth grid:    31423 G-vectors     FFT dimensions: (  24,  24, 162)

     Dynamical RAM for                 wfc:       1.14 MB

     Dynamical RAM for     wfc (w. buffer):      85.26 MB

     Dynamical RAM for           str. fact:       2.71 MB

     Dynamical RAM for           local pot:       0.00 MB

     Dynamical RAM for          nlocal pot:       2.87 MB

     Dynamical RAM for                qrad:       0.67 MB

     Dynamical RAM for          rho,v,vnew:       9.01 MB

     Dynamical RAM for               rhoin:       3.00 MB

     Dynamical RAM for            rho*nmix:      21.70 MB

     Dynamical RAM for           G-vectors:       5.33 MB

     Dynamical RAM for          h,s,v(r/c):       0.02 MB

     Dynamical RAM for          <psi|beta>:       0.01 MB

     Dynamical RAM for      wfcinit/wfcrot:       2.89 MB

     Dynamical RAM for           addusdens:      63.75 MB

     Dynamical RAM for          addusforce:      80.71 MB

     Dynamical RAM for         addusstress:      67.82 MB

     Estimated static dynamical RAM per process >     142.87 MB

     Estimated max dynamical RAM per process >     223.57 MB

     Check: negative core charge=   -0.000005

     Initial potential from superposition of free atoms

     starting charge   29.99983, renormalised to   30.00000

     negative rho (up, down):  5.058E-04 0.000E+00
     Starting wfcs are   24 randomized atomic wfcs
     Checking if some PAW data can be deallocated... 

     total cpu time spent up to now is       10.7 secs

     Self-consistent Calculation

     iteration #  1     ecut=    45.00 Ry     beta= 0.40
     CG style diagonalization
     ethr =  1.00E-02,  avg # of iterations =  3.1

     negative rho (up, down):  4.998E-04 0.000E+00

     total cpu time spent up to now is       26.9 secs

     total energy              =    -189.91425739 Ry
     Harris-Foulkes estimate   =    -190.04560065 Ry
     estimated scf accuracy    <       0.33872086 Ry

     iteration #  2     ecut=    45.00 Ry     beta= 0.40
     CG style diagonalization
     ethr =  1.13E-03,  avg # of iterations =  3.3

     negative rho (up, down):  5.786E-04 0.000E+00

     total cpu time spent up to now is       41.4 secs

     total energy              =    -189.93717411 Ry
     Harris-Foulkes estimate   =    -189.95839385 Ry
     estimated scf accuracy    <       0.05939445 Ry

     iteration #  3     ecut=    45.00 Ry     beta= 0.40
     CG style diagonalization
     ethr =  1.98E-04,  avg # of iterations =  3.4

     negative rho (up, down):  6.632E-04 0.000E+00

     total cpu time spent up to now is       56.6 secs

     total energy              =    -189.93896301 Ry
     Harris-Foulkes estimate   =    -189.94278653 Ry
     estimated scf accuracy    <       0.01071396 Ry

     iteration #  4     ecut=    45.00 Ry     beta= 0.40
     CG style diagonalization
     c_bands:  1 eigenvalues not converged
     ethr =  3.57E-05,  avg # of iterations =  4.1

     negative rho (up, down):  6.619E-04 0.000E+00

     total cpu time spent up to now is       75.3 secs

     total energy              =    -189.94037337 Ry
     Harris-Foulkes estimate   =    -189.94068683 Ry
     estimated scf accuracy    <       0.00115738 Ry

     iteration #  5     ecut=    45.00 Ry     beta= 0.40
     CG style diagonalization
     c_bands:  1 eigenvalues not converged
     c_bands:  1 eigenvalues not converged
     c_bands:  1 eigenvalues not converged
     c_bands:  1 eigenvalues not converged
     ethr =  3.86E-06,  avg # of iterations =  4.3

     negative rho (up, down):  6.482E-04 0.000E+00

     total cpu time spent up to now is       94.5 secs

     total energy              =    -189.94060031 Ry
     Harris-Foulkes estimate   =    -189.94065215 Ry
     estimated scf accuracy    <       0.00013310 Ry

     iteration #  6     ecut=    45.00 Ry     beta= 0.40
     CG style diagonalization
     c_bands:  1 eigenvalues not converged
     c_bands:  1 eigenvalues not converged
     ethr =  4.44E-07,  avg # of iterations =  4.0

     negative rho (up, down):  6.438E-04 0.000E+00

     total cpu time spent up to now is      112.8 secs

     total energy              =    -189.94063214 Ry
     Harris-Foulkes estimate   =    -189.94064488 Ry
     estimated scf accuracy    <       0.00004071 Ry

     iteration #  7     ecut=    45.00 Ry     beta= 0.40
     CG style diagonalization
     ethr =  1.36E-07,  avg # of iterations =  3.6

     negative rho (up, down):  6.409E-04 0.000E+00

     total cpu time spent up to now is      130.3 secs

     total energy              =    -189.94064045 Ry
     Harris-Foulkes estimate   =    -189.94064072 Ry
     estimated scf accuracy    <       0.00000105 Ry

     iteration #  8     ecut=    45.00 Ry     beta= 0.40
     CG style diagonalization
     ethr =  3.51E-09,  avg # of iterations =  4.2

     negative rho (up, down):  6.397E-04 0.000E+00

     total cpu time spent up to now is      150.1 secs

     total energy              =    -189.94064109 Ry
     Harris-Foulkes estimate   =    -189.94064112 Ry
     estimated scf accuracy    <       0.00000013 Ry

     iteration #  9     ecut=    45.00 Ry     beta= 0.40
     CG style diagonalization
     ethr =  4.28E-10,  avg # of iterations =  3.7

     negative rho (up, down):  6.396E-04 0.000E+00

     total cpu time spent up to now is      166.8 secs

     total energy              =    -189.94064113 Ry
     Harris-Foulkes estimate   =    -189.94064114 Ry
     estimated scf accuracy    <       0.00000003 Ry

     iteration # 10     ecut=    45.00 Ry     beta= 0.40
     CG style diagonalization
     ethr =  9.92E-11,  avg # of iterations =  3.7

     negative rho (up, down):  6.396E-04 0.000E+00

     total cpu time spent up to now is      183.6 secs

     total energy              =    -189.94064114 Ry
     Harris-Foulkes estimate   =    -189.94064114 Ry
     estimated scf accuracy    <       0.00000002 Ry

     iteration # 11     ecut=    45.00 Ry     beta= 0.40
     CG style diagonalization
     ethr =  6.62E-11,  avg # of iterations =  3.3

     negative rho (up, down):  6.398E-04 0.000E+00

     total cpu time spent up to now is      198.5 secs

     End of self-consistent calculation

          k = 0.0000 0.0000 0.0000 (  3897 PWs)   bands (ev):

   -27.2861 -27.2383 -21.4632 -18.0390 -12.1198  -9.3981  -6.2230  -5.8041
    -5.8041  -5.5417  -5.5417  -3.2696  -3.2696  -2.0120  -2.0120   1.9640
     4.3213   4.6321   4.6322

     occupation numbers 
     1.0000   1.0000   1.0000   1.0000   1.0000   1.0000   1.0000   1.0000
     1.0000   1.0000   1.0000   1.0000   1.0000   1.0000   1.0000   0.0000
     0.0000   0.0000   0.0000

          k = 0.0000 0.0962-0.0000 (  3887 PWs)   bands (ev):

   -27.2240 -27.1792 -21.3173 -17.9149 -12.0272  -9.3728  -6.6092  -6.1066
    -5.9956  -5.7960  -5.6448  -3.7086  -3.4452  -2.5416  -2.1930   2.3061
     4.2387   5.0050   5.0933

     occupation numbers 
     1.0000   1.0000   1.0000   1.0000   1.0000   1.0000   1.0000   1.0000
     1.0000   1.0000   1.0000   1.0000   1.0000   1.0000   1.0000   0.0000
     0.0000   0.0000   0.0000

          k = 0.0000 0.1925-0.0000 (  3883 PWs)   bands (ev):

   -27.0509 -27.0141 -20.8807 -17.5445 -11.7685  -9.3398  -7.8101  -7.2005
    -6.4961  -6.2113  -5.9392  -4.3921  -3.7937  -3.6607  -2.6202   2.8109
     4.0502   5.7317   5.9763

     occupation numbers 
     1.0000   1.0000   1.0000   1.0000   1.0000   1.0000   1.0000   1.0000
     1.0000   1.0000   1.0000   1.0000   1.0000   1.0000   1.0000   0.0000
     0.0000   0.0000   0.0000

          k = 0.0000 0.2887-0.0000 (  3913 PWs)   bands (ev):

   -26.8054 -26.7795 -20.1565 -16.9340 -11.4520  -9.8803  -9.2170  -8.4143
    -7.1229  -6.8312  -6.3479  -5.0409  -4.6198  -4.1152  -3.0732   2.8484
     4.1740   5.7852   7.1106

     occupation numbers 
     1.0000   1.0000   1.0000   1.0000   1.0000   1.0000   1.0000   1.0000
     1.0000   1.0000   1.0000   1.0000   1.0000   1.0000   1.0000   0.0000
     0.0000   0.0000   0.0000

          k = 0.0000 0.3849-0.0000 (  3937 PWs)   bands (ev):

   -26.5485 -26.5332 -19.1563 -16.0999 -12.1971 -10.8566 -10.1799  -8.8785
    -7.6856  -7.4094  -6.7499  -5.9477  -4.9702  -4.3573  -3.4254   2.6785
     4.3794   5.5025   7.2020

     occupation numbers 
     1.0000   1.0000   1.0000   1.0000   1.0000   1.0000   1.0000   1.0000
     1.0000   1.0000   1.0000   1.0000   1.0000   1.0000   1.0000   0.0000
     0.0000   0.0000   0.0000

          k = 0.0000 0.4811-0.0000 (  3939 PWs)   bands (ev):

   -26.3520 -26.3450 -17.9304 -15.1489 -13.9329 -12.0968 -10.0606  -9.0981
    -8.0622  -7.7290  -7.0355  -6.5860  -5.1762  -4.5088  -3.6409   2.6581
     4.2287   5.0465   7.4480

     occupation numbers 
     1.0000   1.0000   1.0000   1.0000   1.0000   1.0000   1.0000   1.0000
     1.0000   1.0000   1.0000   1.0000   1.0000   1.0000   1.0000   0.0000
     0.0000   0.0000   0.0000

          k = 0.0000-0.5774 0.0000 (  3930 PWs)   bands (ev):

   -26.2776 -26.2749 -16.9872 -15.4016 -13.9210 -13.1916  -9.8109  -9.2864
    -8.1934  -7.8076  -7.1379  -6.8120  -5.2564  -4.5606  -3.7132   2.7263
     3.9445   4.9718   7.8528

     occupation numbers 
     1.0000   1.0000   1.0000   1.0000   1.0000   1.0000   1.0000   1.0000
     1.0000   1.0000   1.0000   1.0000   1.0000   1.0000   1.0000   0.0000
     0.0000   0.0000   0.0000

          k = 0.0833-0.0481-0.0000 (  3887 PWs)   bands (ev):

   -27.2240 -27.1792 -21.3173 -17.9149 -12.0272  -9.3728  -6.6092  -6.1066
    -5.9956  -5.7961  -5.6448  -3.7086  -3.4452  -2.5416  -2.1930   2.3061
     4.2387   5.0050   5.0932

     occupation numbers 
     1.0000   1.0000   1.0000   1.0000   1.0000   1.0000   1.0000   1.0000
     1.0000   1.0000   1.0000   1.0000   1.0000   1.0000   1.0000   0.0000
     0.0000   0.0000   0.0000

          k = 0.0833 0.0481-0.0000 (  3887 PWs)   bands (ev):

   -27.2240 -27.1792 -21.3173 -17.9149 -12.0272  -9.3728  -6.6092  -6.1066
    -5.9956  -5.7960  -5.6449  -3.7086  -3.4452  -2.5416  -2.1930   2.3061
     4.2388   5.0050   5.0934

     occupation numbers 
     1.0000   1.0000   1.0000   1.0000   1.0000   1.0000   1.0000   1.0000
     1.0000   1.0000   1.0000   1.0000   1.0000   1.0000   1.0000   0.0000
     0.0000   0.0000   0.0000

          k = 0.0833 0.1443-0.0000 (  3897 PWs)   bands (ev):

   -27.1064 -27.0670 -21.0261 -17.6676 -11.8509  -9.3399  -7.3301  -6.7784
    -6.5142  -6.1740  -5.7587  -4.1156  -3.9234  -3.1289  -2.6428   2.7939
     4.2471   5.3456   5.7457

     occupation numbers 
     1.0000   1.0000   1.0000   1.0000   1.0000   1.0000   1.0000   1.0000
     1.0000   1.0000   1.0000   1.0000   1.0000   1.0000   1.0000   0.0000
     0.0000   0.0000   0.0000

          k = 0.0833 0.2406-0.0000 (  3910 PWs)   bands (ev):

   -26.8968 -26.8669 -20.4454 -17.1768 -11.5476  -9.4155  -8.7004  -7.8984
    -7.2629  -6.7526  -6.0932  -4.7615  -4.4093  -3.8782  -3.1898   3.3058
     4.2657   5.9769   6.4045

     occupation numbers 
     1.0000   1.0000   1.0000   1.0000   1.0000   1.0000   1.0000   1.0000
     1.0000   1.0000   1.0000   1.0000   1.0000   1.0000   1.0000   0.0000
     0.0000   0.0000   0.0000

          k = 0.0833 0.3368-0.0000 (  3928 PWs)   bands (ev):

   -26.6447 -26.6254 -19.5816 -16.4520 -11.4952 -10.5052  -9.7236  -8.7205
    -7.9363  -7.3362  -6.6327  -5.5676  -4.8224  -4.3313  -3.5805   3.3314
     4.5466   6.0935   7.0638

     occupation numbers 
     1.0000   1.0000   1.0000   1.0000   1.0000   1.0000   1.0000   1.0000
     1.0000   1.0000   1.0000   1.0000   1.0000   1.0000   1.0000   0.0000
     0.0000   0.0000   0.0000

          k = 0.0833 0.4330-0.0000 (  3937 PWs)   bands (ev):

   -26.4168 -26.4066 -18.4579 -15.5265 -13.0305 -11.3683 -10.1603  -9.0192
    -8.3908  -7.7059  -7.1633  -6.2612  -5.1681  -4.5117  -3.8435   3.2835
     4.6573   5.6878   7.4224

     occupation numbers 
     1.0000   1.0000   1.0000   1.0000   1.0000   1.0000   1.0000   1.0000
     1.0000   1.0000   1.0000   1.0000   1.0000   1.0000   1.0000   0.0000
     0.0000   0.0000   0.0000

          k = 0.0833-0.6255 0.0000 (  3940 PWs)   bands (ev):

   -26.2803 -26.2764 -17.2153 -15.0224 -14.0983 -12.7239  -9.8558  -9.2558
    -8.6415  -7.8156  -7.4896  -6.6545  -5.3550  -4.5949  -3.9799   3.4343
     4.2185   5.5552   7.6941

     occupation numbers 
     1.0000   1.0000   1.0000   1.0000   1.0000   1.0000   1.0000   1.0000
     1.0000   1.0000   1.0000   1.0000   1.0000   1.0000   1.0000   0.0000
     0.0000   0.0000   0.0000

          k = 0.0833-0.5292 0.0000 (  3940 PWs)   bands (ev):

   -26.2803 -26.2764 -17.2153 -15.0224 -14.0983 -12.7239  -9.8558  -9.2558
    -8.6415  -7.8156  -7.4896  -6.6545  -5.3550  -4.5950  -3.9799   3.4343
     4.2185   5.5552   7.6935

     occupation numbers 
     1.0000   1.0000   1.0000   1.0000   1.0000   1.0000   1.0000   1.0000
     1.0000   1.0000   1.0000   1.0000   1.0000   1.0000   1.0000   0.0000
     0.0000   0.0000   0.0000

          k = 0.0833-0.4330 0.0000 (  3938 PWs)   bands (ev):

   -26.4168 -26.4066 -18.4579 -15.5265 -13.0305 -11.3683 -10.1603  -9.0192
    -8.3908  -7.7059  -7.1633  -6.2612  -5.1681  -4.5117  -3.8435   3.2835
     4.6573   5.6878   7.4220

     occupation numbers 
     1.0000   1.0000   1.0000   1.0000   1.0000   1.0000   1.0000   1.0000
     1.0000   1.0000   1.0000   1.0000   1.0000   1.0000   1.0000   0.0000
     0.0000   0.0000   0.0000

          k = 0.0833-0.3368 0.0000 (  3928 PWs)   bands (ev):

   -26.6447 -26.6254 -19.5816 -16.4520 -11.4952 -10.5052  -9.7236  -8.7205
    -7.9363  -7.3362  -6.6327  -5.5676  -4.8224  -4.3313  -3.5805   3.3314
     4.5467   6.0935   7.0640

     occupation numbers 
     1.0000   1.0000   1.0000   1.0000   1.0000   1.0000   1.0000   1.0000
     1.0000   1.0000   1.0000   1.0000   1.0000   1.0000   1.0000   0.0000
     0.0000   0.0000   0.0000

          k = 0.0833-0.2406 0.0000 (  3910 PWs)   bands (ev):

   -26.8968 -26.8669 -20.4454 -17.1768 -11.5476  -9.4155  -8.7004  -7.8984
    -7.2629  -6.7526  -6.0932  -4.7615  -4.4093  -3.8782  -3.1898   3.3059
     4.2658   5.9770   6.4045

     occupation numbers 
     1.0000   1.0000   1.0000   1.0000   1.0000   1.0000   1.0000   1.0000
     1.0000   1.0000   1.0000   1.0000   1.0000   1.0000   1.0000   0.0000
     0.0000   0.0000   0.0000

          k = 0.0833-0.1443 0.0000 (  3897 PWs)   bands (ev):

   -27.1064 -27.0670 -21.0261 -17.6676 -11.8509  -9.3399  -7.3301  -6.7784
    -6.5142  -6.1740  -5.7586  -4.1156  -3.9234  -3.1289  -2.6428   2.7939
     4.2472   5.3457   5.7453

     occupation numbers 
     1.0000   1.0000   1.0000   1.0000   1.0000   1.0000   1.0000   1.0000
     1.0000   1.0000   1.0000   1.0000   1.0000   1.0000   1.0000   0.0000
     0.0000   0.0000   0.0000

          k = 0.1667-0.0962-0.0000 (  3883 PWs)   bands (ev):

   -27.0509 -27.0141 -20.8807 -17.5445 -11.7685  -9.3398  -7.8101  -7.2005
    -6.4961  -6.2113  -5.9392  -4.3921  -3.7937  -3.6607  -2.6202   2.8109
     4.0501   5.7318   5.9763

     occupation numbers 
     1.0000   1.0000   1.0000   1.0000   1.0000   1.0000   1.0000   1.0000
     1.0000   1.0000   1.0000   1.0000   1.0000   1.0000   1.0000   0.0000
     0.0000   0.0000   0.0000

          k = 0.1667-0.0000-0.0000 (  3897 PWs)   bands (ev):

   -27.1064 -27.0670 -21.0261 -17.6676 -11.8509  -9.3399  -7.3301  -6.7784
    -6.5142  -6.1740  -5.7587  -4.1156  -3.9234  -3.1289  -2.6428   2.7939
     4.2471   5.3457   5.7456

     occupation numbers 
     1.0000   1.0000   1.0000   1.0000   1.0000   1.0000   1.0000   1.0000
     1.0000   1.0000   1.0000   1.0000   1.0000   1.0000   1.0000   0.0000
     0.0000   0.0000   0.0000

          k = 0.1667 0.0962-0.0000 (  3883 PWs)   bands (ev):

   -27.0509 -27.0141 -20.8807 -17.5445 -11.7685  -9.3398  -7.8101  -7.2004
    -6.4961  -6.2113  -5.9392  -4.3921  -3.7937  -3.6607  -2.6202   2.8109
     4.0501   5.7318   5.9763

     occupation numbers 
     1.0000   1.0000   1.0000   1.0000   1.0000   1.0000   1.0000   1.0000
     1.0000   1.0000   1.0000   1.0000   1.0000   1.0000   1.0000   0.0000
     0.0000   0.0000   0.0000

          k = 0.1667 0.1925-0.0000 (  3910 PWs)   bands (ev):

   -26.8968 -26.8669 -20.4454 -17.1768 -11.5476  -9.4155  -8.7003  -7.8984
    -7.2629  -6.7527  -6.0932  -4.7615  -4.4093  -3.8782  -3.1898   3.3058
     4.2657   5.9770   6.4045

     occupation numbers 
     1.0000   1.0000   1.0000   1.0000   1.0000   1.0000   1.0000   1.0000
     1.0000   1.0000   1.0000   1.0000   1.0000   1.0000   1.0000   0.0000
     0.0000   0.0000   0.0000

          k = 0.1667 0.2887-0.0000 (  3915 PWs)   bands (ev):

   -26.6799 -26.6591 -19.7241 -16.5702 -11.3472  -9.8587  -9.7393  -8.5121
    -8.2325  -7.6673  -6.4722  -5.4967  -4.6375  -4.2096  -3.9746   4.2294
     4.4630   6.4264   7.4535

     occupation numbers 
     1.0000   1.0000   1.0000   1.0000   1.0000   1.0000   1.0000   1.0000
     1.0000   1.0000   1.0000   1.0000   1.0000   1.0000   1.0000   0.0000
     0.0000   0.0000   0.0000

          k = 0.1667 0.3849-0.0000 (  3923 PWs)   bands (ev):

   -26.4552 -26.4431 -18.7300 -15.7407 -12.0712 -10.9055 -10.0796  -9.1592
    -8.8522  -8.2294  -7.0737  -6.0653  -5.0502  -4.5708  -4.3134   4.3444
     5.0814   6.9339   7.2585

     occupation numbers 
     1.0000   1.0000   1.0000   1.0000   1.0000   1.0000   1.0000   1.0000
     1.0000   1.0000   1.0000   1.0000   1.0000   1.0000   1.0000   0.0000
     0.0000   0.0000   0.0000

          k = 0.1667-0.6736 0.0000 (  3927 PWs)   bands (ev):

   -26.2851 -26.2796 -17.5184 -14.7897 -13.6283 -12.0103  -9.9893  -9.6914
    -9.1345  -8.2959  -7.6613  -6.4006  -5.5004  -4.6614  -4.5101   4.3163
     5.3399   6.8599   7.1807

     occupation numbers 
     1.0000   1.0000   1.0000   1.0000   1.0000   1.0000   1.0000   1.0000
     1.0000   1.0000   1.0000   1.0000   1.0000   1.0000   1.0000   0.0000
     0.0000   0.0000   0.0000

          k = 0.1667-0.5774 0.0000 (  3928 PWs)   bands (ev):

   -26.2211 -26.2190 -16.5996 -15.0090 -13.5425 -13.0497 -10.1813  -9.5047
    -9.2666  -8.2972  -7.9244  -6.5150  -5.6640  -4.6425  -4.6261   4.3575
     5.2118   6.9296   7.1929

     occupation numbers 
     1.0000   1.0000   1.0000   1.0000   1.0000   1.0000   1.0000   1.0000
     1.0000   1.0000   1.0000   1.0000   1.0000   1.0000   1.0000   0.0000
     0.0000   0.0000   0.0000

          k = 0.1667-0.4811 0.0000 (  3927 PWs)   bands (ev):

   -26.2851 -26.2796 -17.5184 -14.7897 -13.6283 -12.0103  -9.9893  -9.6914
    -9.1345  -8.2959  -7.6613  -6.4005  -5.5004  -4.6614  -4.5101   4.3164
     5.3399   6.8597   7.1807

     occupation numbers 
     1.0000   1.0000   1.0000   1.0000   1.0000   1.0000   1.0000   1.0000
     1.0000   1.0000   1.0000   1.0000   1.0000   1.0000   1.0000   0.0000
     0.0000   0.0000   0.0000

          k = 0.1667-0.3849 0.0000 (  3923 PWs)   bands (ev):

   -26.4552 -26.4431 -18.7300 -15.7407 -12.0712 -10.9055 -10.0796  -9.1592
    -8.8522  -8.2294  -7.0737  -6.0653  -5.0502  -4.5708  -4.3134   4.3445
     5.0814   6.9338   7.2586

     occupation numbers 
     1.0000   1.0000   1.0000   1.0000   1.0000   1.0000   1.0000   1.0000
     1.0000   1.0000   1.0000   1.0000   1.0000   1.0000   1.0000   0.0000
     0.0000   0.0000   0.0000

          k = 0.1667-0.2887 0.0000 (  3915 PWs)   bands (ev):

   -26.6799 -26.6591 -19.7241 -16.5702 -11.3472  -9.8587  -9.7393  -8.5121
    -8.2325  -7.6673  -6.4722  -5.4967  -4.6375  -4.2096  -3.9746   4.2294
     4.4630   6.4266   7.6537

     occupation numbers 
     1.0000   1.0000   1.0000   1.0000   1.0000   1.0000   1.0000   1.0000
     1.0000   1.0000   1.0000   1.0000   1.0000   1.0000   1.0000   0.0000
     0.0000   0.0000   0.0000

          k = 0.1667-0.1925-0.0000 (  3910 PWs)   bands (ev):

   -26.8968 -26.8669 -20.4454 -17.1768 -11.5476  -9.4155  -8.7004  -7.8984
    -7.2629  -6.7526  -6.0932  -4.7615  -4.4093  -3.8782  -3.1898   3.3059
     4.2657   5.9770   6.4045

     occupation numbers 
     1.0000   1.0000   1.0000   1.0000   1.0000   1.0000   1.0000   1.0000
     1.0000   1.0000   1.0000   1.0000   1.0000   1.0000   1.0000   0.0000
     0.0000   0.0000   0.0000

          k = 0.2500-0.1443-0.0000 (  3913 PWs)   bands (ev):

   -26.8054 -26.7795 -20.1565 -16.9340 -11.4520  -9.8803  -9.2170  -8.4143
    -7.1229  -6.8312  -6.3479  -5.0409  -4.6198  -4.1152  -3.0732   2.8484
     4.1740   5.7852   7.1105

     occupation numbers 
     1.0000   1.0000   1.0000   1.0000   1.0000   1.0000   1.0000   1.0000
     1.0000   1.0000   1.0000   1.0000   1.0000   1.0000   1.0000   0.0000
     0.0000   0.0000   0.0000

          k = 0.2500-0.0481-0.0000 (  3910 PWs)   bands (ev):

   -26.8968 -26.8669 -20.4454 -17.1768 -11.5476  -9.4155  -8.7004  -7.8984
    -7.2629  -6.7526  -6.0932  -4.7615  -4.4093  -3.8782  -3.1898   3.3058
     4.2657   5.9770   6.4045

     occupation numbers 
     1.0000   1.0000   1.0000   1.0000   1.0000   1.0000   1.0000   1.0000
     1.0000   1.0000   1.0000   1.0000   1.0000   1.0000   1.0000   0.0000
     0.0000   0.0000   0.0000

          k = 0.2500 0.0481-0.0000 (  3910 PWs)   bands (ev):

   -26.8968 -26.8669 -20.4454 -17.1768 -11.5476  -9.4155  -8.7004  -7.8984
    -7.2629  -6.7527  -6.0932  -4.7615  -4.4093  -3.8782  -3.1898   3.3058
     4.2657   5.9770   6.4046

     occupation numbers 
     1.0000   1.0000   1.0000   1.0000   1.0000   1.0000   1.0000   1.0000
     1.0000   1.0000   1.0000   1.0000   1.0000   1.0000   1.0000   0.0000
     0.0000   0.0000   0.0000

          k = 0.2500 0.1443-0.0000 (  3913 PWs)   bands (ev):

   -26.8054 -26.7795 -20.1565 -16.9340 -11.4520  -9.8803  -9.2170  -8.4143
    -7.1229  -6.8312  -6.3479  -5.0409  -4.6198  -4.1152  -3.0732   2.8484
     4.1740   5.7852   7.1106

     occupation numbers 
     1.0000   1.0000   1.0000   1.0000   1.0000   1.0000   1.0000   1.0000
     1.0000   1.0000   1.0000   1.0000   1.0000   1.0000   1.0000   0.0000
     0.0000   0.0000   0.0000

          k = 0.2500 0.2406-0.0000 (  3928 PWs)   bands (ev):

   -26.6447 -26.6254 -19.5816 -16.4520 -11.4952 -10.5052  -9.7236  -8.7204
    -7.9363  -7.3363  -6.6327  -5.5676  -4.8223  -4.3313  -3.5805   3.3314
     4.5466   6.0936   7.0637

     occupation numbers 
     1.0000   1.0000   1.0000   1.0000   1.0000   1.0000   1.0000   1.0000
     1.0000   1.0000   1.0000   1.0000   1.0000   1.0000   1.0000   0.0000
     0.0000   0.0000   0.0000

          k = 0.2500 0.3368-0.0000 (  3923 PWs)   bands (ev):

   -26.4552 -26.4431 -18.7300 -15.7407 -12.0712 -10.9055 -10.0796  -9.1592
    -8.8522  -8.2294  -7.0737  -6.0653  -5.0502  -4.5708  -4.3134   4.3444
     5.0813   6.9339   7.2585

     occupation numbers 
     1.0000   1.0000   1.0000   1.0000   1.0000   1.0000   1.0000   1.0000
     1.0000   1.0000   1.0000   1.0000   1.0000   1.0000   1.0000   0.0000
     0.0000   0.0000   0.0000

          k = 0.2500-0.7217 0.0000 (  3924 PWs)   bands (ev):

   -26.2875 -26.2813 -17.6340 -14.8342 -12.9373 -11.8927 -10.0322  -9.9497
    -9.5514  -8.5110  -7.6246  -6.3192  -5.3400  -5.0786  -4.5728   4.6140
     5.8943   6.7389   8.8093

     occupation numbers 
     1.0000   1.0000   1.0000   1.0000   1.0000   1.0000   1.0000   1.0000
     1.0000   1.0000   1.0000   1.0000   1.0000   1.0000   1.0000   0.0000
     0.0000   0.0000   0.0000

          k = 0.2500-0.6255 0.0000 (  3912 PWs)   bands (ev):

   -26.1887 -26.1865 -16.4576 -14.2870 -13.6355 -12.7467 -10.9044 -10.2719
    -9.1713  -8.5859  -8.1186  -6.2838  -5.7694  -5.2908  -4.6484   4.6933
     5.7328   7.5051   8.3989

     occupation numbers 
     1.0000   1.0000   1.0000   1.0000   1.0000   1.0000   1.0000   1.0000
     1.0000   1.0000   1.0000   1.0000   1.0000   1.0000   1.0000   0.0000
     0.0000   0.0000   0.0000

          k = 0.2500-0.5292 0.0000 (  3912 PWs)   bands (ev):

   -26.1887 -26.1865 -16.4576 -14.2870 -13.6355 -12.7467 -10.9044 -10.2719
    -9.1713  -8.5859  -8.1185  -6.2837  -5.7694  -5.2908  -4.6484   4.6934
     5.7328   7.5051   8.3988

     occupation numbers 
     1.0000   1.0000   1.0000   1.0000   1.0000   1.0000   1.0000   1.0000
     1.0000   1.0000   1.0000   1.0000   1.0000   1.0000   1.0000   0.0000
     0.0000   0.0000   0.0000

          k = 0.2500-0.4330 0.0000 (  3923 PWs)   bands (ev):

   -26.2875 -26.2813 -17.6340 -14.8342 -12.9373 -11.8927 -10.0322  -9.9497
    -9.5514  -8.5110  -7.6245  -6.3192  -5.3400  -5.0786  -4.5729   4.6141
     5.8943   6.7388   8.8087

     occupation numbers 
     1.0000   1.0000   1.0000   1.0000   1.0000   1.0000   1.0000   1.0000
     1.0000   1.0000   1.0000   1.0000   1.0000   1.0000   1.0000   0.0000
     0.0000   0.0000   0.0000

          k = 0.2500-0.3368-0.0000 (  3923 PWs)   bands (ev):

   -26.4552 -26.4431 -18.7300 -15.7407 -12.0712 -10.9055 -10.0796  -9.1592
    -8.8522  -8.2294  -7.0737  -6.0653  -5.0502  -4.5708  -4.3134   4.3444
     5.0814   6.9338   7.2585

     occupation numbers 
     1.0000   1.0000   1.0000   1.0000   1.0000   1.0000   1.0000   1.0000
     1.0000   1.0000   1.0000   1.0000   1.0000   1.0000   1.0000   0.0000
     0.0000   0.0000   0.0000

          k = 0.2500-0.2406-0.0000 (  3928 PWs)   bands (ev):

   -26.6447 -26.6254 -19.5816 -16.4520 -11.4952 -10.5052  -9.7236  -8.7205
    -7.9363  -7.3363  -6.6327  -5.5676  -4.8224  -4.3313  -3.5805   3.3314
     4.5467   6.0936   7.0637

     occupation numbers 
     1.0000   1.0000   1.0000   1.0000   1.0000   1.0000   1.0000   1.0000
     1.0000   1.0000   1.0000   1.0000   1.0000   1.0000   1.0000   0.0000
     0.0000   0.0000   0.0000

          k = 0.3333-0.1925-0.0000 (  3937 PWs)   bands (ev):

   -26.5485 -26.5332 -19.1563 -16.0999 -12.1971 -10.8566 -10.1799  -8.8785
    -7.6856  -7.4094  -6.7499  -5.9477  -4.9702  -4.3573  -3.4254   2.6785
     4.3794   5.5025   7.2018

     occupation numbers 
     1.0000   1.0000   1.0000   1.0000   1.0000   1.0000   1.0000   1.0000
     1.0000   1.0000   1.0000   1.0000   1.0000   1.0000   1.0000   0.0000
     0.0000   0.0000   0.0000

          k = 0.3333-0.0962-0.0000 (  3928 PWs)   bands (ev):

   -26.6447 -26.6254 -19.5816 -16.4520 -11.4952 -10.5052  -9.7236  -8.7205
    -7.9363  -7.3362  -6.6327  -5.5676  -4.8224  -4.3313  -3.5805   3.3314
     4.5466   6.0936   7.0637

     occupation numbers 
     1.0000   1.0000   1.0000   1.0000   1.0000   1.0000   1.0000   1.0000
     1.0000   1.0000   1.0000   1.0000   1.0000   1.0000   1.0000   0.0000
     0.0000   0.0000   0.0000

          k = 0.3333-0.0000-0.0000 (  3915 PWs)   bands (ev):

   -26.6799 -26.6591 -19.7241 -16.5702 -11.3472  -9.8587  -9.7393  -8.5121
    -8.2325  -7.6673  -6.4722  -5.4967  -4.6375  -4.2096  -3.9746   4.2294
     4.4630   6.4264   7.4527

     occupation numbers 
     1.0000   1.0000   1.0000   1.0000   1.0000   1.0000   1.0000   1.0000
     1.0000   1.0000   1.0000   1.0000   1.0000   1.0000   1.0000   0.0000
     0.0000   0.0000   0.0000

          k = 0.3333 0.0962-0.0000 (  3928 PWs)   bands (ev):

   -26.6447 -26.6254 -19.5816 -16.4520 -11.4952 -10.5052  -9.7236  -8.7204
    -7.9363  -7.3363  -6.6327  -5.5676  -4.8223  -4.3313  -3.5805   3.3314
     4.5466   6.0938   7.0636

     occupation numbers 
     1.0000   1.0000   1.0000   1.0000   1.0000   1.0000   1.0000   1.0000
     1.0000   1.0000   1.0000   1.0000   1.0000   1.0000   1.0000   0.0000
     0.0000   0.0000   0.0000

          k = 0.3333 0.1925-0.0000 (  3937 PWs)   bands (ev):

   -26.5485 -26.5332 -19.1563 -16.0999 -12.1971 -10.8566 -10.1799  -8.8785
    -7.6857  -7.4095  -6.7499  -5.9477  -4.9702  -4.3573  -3.4254   2.6785
     4.3793   5.5025   7.2019

     occupation numbers 
     1.0000   1.0000   1.0000   1.0000   1.0000   1.0000   1.0000   1.0000
     1.0000   1.0000   1.0000   1.0000   1.0000   1.0000   1.0000   0.0000
     0.0000   0.0000   0.0000

          k = 0.3333 0.2887-0.0000 (  3938 PWs)   bands (ev):

   -26.4168 -26.4067 -18.4579 -15.5265 -13.0305 -11.3683 -10.1603  -9.0192
    -8.3908  -7.7059  -7.1633  -6.2612  -5.1681  -4.5117  -3.8435   3.2835
     4.6572   5.6878   7.4222

     occupation numbers 
     1.0000   1.0000   1.0000   1.0000   1.0000   1.0000   1.0000   1.0000
     1.0000   1.0000   1.0000   1.0000   1.0000   1.0000   1.0000   0.0000
     0.0000   0.0000   0.0000

          k = 0.3333-0.7698 0.0000 (  3927 PWs)   bands (ev):

   -26.2851 -26.2796 -17.5184 -14.7897 -13.6283 -12.0103  -9.9892  -9.6914
    -9.1345  -8.2959  -7.6613  -6.4005  -5.5004  -4.6614  -4.5101   4.3163
     5.3399   6.8597   7.1808

     occupation numbers 
     1.0000   1.0000   1.0000   1.0000   1.0000   1.0000   1.0000   1.0000
     1.0000   1.0000   1.0000   1.0000   1.0000   1.0000   1.0000   0.0000
     0.0000   0.0000   0.0000

          k = 0.3333-0.6736 0.0000 (  3912 PWs)   bands (ev):

   -26.1887 -26.1865 -16.4576 -14.2870 -13.6355 -12.7467 -10.9044 -10.2719
    -9.1713  -8.5859  -8.1186  -6.2837  -5.7694  -5.2908  -4.6484   4.6933
     5.7328   7.5051   8.3991

     occupation numbers 
     1.0000   1.0000   1.0000   1.0000   1.0000   1.0000   1.0000   1.0000
     1.0000   1.0000   1.0000   1.0000   1.0000   1.0000   1.0000   0.0000
     0.0000   0.0000   0.0000

          k = 0.3333-0.5774 0.0000 (  3885 PWs)   bands (ev):

   -26.1531 -26.1527 -15.8350 -13.9609 -13.9608 -12.8626 -11.0851 -11.0850
    -8.6674  -8.6331  -8.6329  -5.9256  -5.8591  -5.8589  -4.6675   5.1509
     5.1510   8.3638   9.0434

     occupation numbers 
     1.0000   1.0000   1.0000   1.0000   1.0000   1.0000   1.0000   1.0000
     1.0000   1.0000   1.0000   1.0000   1.0000   1.0000   1.0000   0.0000
     0.0000   0.0000   0.0000

          k = 0.3333-0.4811-0.0000 (  3912 PWs)   bands (ev):

   -26.1887 -26.1865 -16.4576 -14.2870 -13.6355 -12.7467 -10.9044 -10.2719
    -9.1713  -8.5859  -8.1185  -6.2837  -5.7694  -5.2908  -4.6484   4.6934
     5.7327   7.5051   8.3988

     occupation numbers 
     1.0000   1.0000   1.0000   1.0000   1.0000   1.0000   1.0000   1.0000
     1.0000   1.0000   1.0000   1.0000   1.0000   1.0000   1.0000   0.0000
     0.0000   0.0000   0.0000

          k = 0.3333-0.3849-0.0000 (  3927 PWs)   bands (ev):

   -26.2851 -26.2796 -17.5184 -14.7897 -13.6283 -12.0103  -9.9893  -9.6914
    -9.1345  -8.2959  -7.6613  -6.4005  -5.5004  -4.6614  -4.5101   4.3164
     5.3399   6.8597   7.1809

     occupation numbers 
     1.0000   1.0000   1.0000   1.0000   1.0000   1.0000   1.0000   1.0000
     1.0000   1.0000   1.0000   1.0000   1.0000   1.0000   1.0000   0.0000
     0.0000   0.0000   0.0000

          k = 0.3333-0.2887-0.0000 (  3938 PWs)   bands (ev):

   -26.4168 -26.4067 -18.4579 -15.5265 -13.0305 -11.3683 -10.1603  -9.0192
    -8.3908  -7.7059  -7.1633  -6.2612  -5.1681  -4.5117  -3.8435   3.2835
     4.6573   5.6878   7.4221

     occupation numbers 
     1.0000   1.0000   1.0000   1.0000   1.0000   1.0000   1.0000   1.0000
     1.0000   1.0000   1.0000   1.0000   1.0000   1.0000   1.0000   0.0000
     0.0000   0.0000   0.0000

          k = 0.4167-0.2406-0.0000 (  3939 PWs)   bands (ev):

   -26.3520 -26.3450 -17.9304 -15.1489 -13.9329 -12.0968 -10.0606  -9.0981
    -8.0622  -7.7291  -7.0355  -6.5860  -5.1762  -4.5088  -3.6409   2.6581
     4.2287   5.0465   7.4484

     occupation numbers 
     1.0000   1.0000   1.0000   1.0000   1.0000   1.0000   1.0000   1.0000
     1.0000   1.0000   1.0000   1.0000   1.0000   1.0000   1.0000   0.0000
     0.0000   0.0000   0.0000

          k = 0.4167-0.1443-0.0000 (  3937 PWs)   bands (ev):

   -26.4168 -26.4066 -18.4579 -15.5265 -13.0305 -11.3683 -10.1603  -9.0192
    -8.3908  -7.7059  -7.1633  -6.2612  -5.1681  -4.5117  -3.8435   3.2835
     4.6572   5.6878   7.4224

     occupation numbers 
     1.0000   1.0000   1.0000   1.0000   1.0000   1.0000   1.0000   1.0000
     1.0000   1.0000   1.0000   1.0000   1.0000   1.0000   1.0000   0.0000
     0.0000   0.0000   0.0000

          k = 0.4167-0.0481-0.0000 (  3923 PWs)   bands (ev):

   -26.4552 -26.4431 -18.7300 -15.7407 -12.0712 -10.9055 -10.0796  -9.1592
    -8.8522  -8.2294  -7.0737  -6.0653  -5.0502  -4.5708  -4.3134   4.3444
     5.0814   6.9339   7.2585

     occupation numbers 
     1.0000   1.0000   1.0000   1.0000   1.0000   1.0000   1.0000   1.0000
     1.0000   1.0000   1.0000   1.0000   1.0000   1.0000   1.0000   0.0000
     0.0000   0.0000   0.0000

          k = 0.4167 0.0481-0.0000 (  3923 PWs)   bands (ev):

   -26.4552 -26.4431 -18.7300 -15.7407 -12.0712 -10.9055 -10.0796  -9.1592
    -8.8522  -8.2294  -7.0737  -6.0653  -5.0502  -4.5708  -4.3134   4.3444
     5.0813   6.9339   7.2585

     occupation numbers 
     1.0000   1.0000   1.0000   1.0000   1.0000   1.0000   1.0000   1.0000
     1.0000   1.0000   1.0000   1.0000   1.0000   1.0000   1.0000   0.0000
     0.0000   0.0000   0.0000

          k = 0.4167 0.1443-0.0000 (  3938 PWs)   bands (ev):

   -26.4168 -26.4067 -18.4579 -15.5265 -13.0305 -11.3683 -10.1603  -9.0192
    -8.3908  -7.7059  -7.1633  -6.2612  -5.1681  -4.5117  -3.8435   3.2835
     4.6572   5.6878   7.4223

     occupation numbers 
     1.0000   1.0000   1.0000   1.0000   1.0000   1.0000   1.0000   1.0000
     1.0000   1.0000   1.0000   1.0000   1.0000   1.0000   1.0000   0.0000
     0.0000   0.0000   0.0000

          k = 0.4167 0.2406-0.0000 (  3939 PWs)   bands (ev):

   -26.3520 -26.3450 -17.9304 -15.1489 -13.9329 -12.0968 -10.0606  -9.0981
    -8.0622  -7.7291  -7.0355  -6.5860  -5.1761  -4.5088  -3.6409   2.6580
     4.2286   5.0465   7.4482

     occupation numbers 
     1.0000   1.0000   1.0000   1.0000   1.0000   1.0000   1.0000   1.0000
     1.0000   1.0000   1.0000   1.0000   1.0000   1.0000   1.0000   0.0000
     0.0000   0.0000   0.0000

          k = 0.4167-0.8179 0.0000 (  3940 PWs)   bands (ev):

   -26.2803 -26.2764 -17.2153 -15.0224 -14.0983 -12.7239  -9.8558  -9.2558
    -8.6415  -7.8156  -7.4896  -6.6545  -5.3550  -4.5949  -3.9799   3.4343
     4.2184   5.5553   7.6935

     occupation numbers 
     1.0000   1.0000   1.0000   1.0000   1.0000   1.0000   1.0000   1.0000
     1.0000   1.0000   1.0000   1.0000   1.0000   1.0000   1.0000   0.0000
     0.0000   0.0000   0.0000

          k = 0.4167-0.7217 0.0000 (  3928 PWs)   bands (ev):

   -26.2211 -26.2190 -16.5996 -15.0091 -13.5425 -13.0497 -10.1813  -9.5047
    -9.2666  -8.2972  -7.9245  -6.5150  -5.6640  -4.6425  -4.6261   4.3574
     5.2119   6.9296   7.1930

     occupation numbers 
     1.0000   1.0000   1.0000   1.0000   1.0000   1.0000   1.0000   1.0000
     1.0000   1.0000   1.0000   1.0000   1.0000   1.0000   1.0000   0.0000
     0.0000   0.0000   0.0000

          k = 0.4167-0.6255-0.0000 (  3912 PWs)   bands (ev):

   -26.1887 -26.1865 -16.4576 -14.2870 -13.6355 -12.7467 -10.9044 -10.2719
    -9.1713  -8.5859  -8.1186  -6.2837  -5.7694  -5.2908  -4.6484   4.6933
     5.7328   7.5051   8.3990

     occupation numbers 
     1.0000   1.0000   1.0000   1.0000   1.0000   1.0000   1.0000   1.0000
     1.0000   1.0000   1.0000   1.0000   1.0000   1.0000   1.0000   0.0000
     0.0000   0.0000   0.0000

          k = 0.4167-0.5292-0.0000 (  3912 PWs)   bands (ev):

   -26.1887 -26.1865 -16.4576 -14.2870 -13.6355 -12.7467 -10.9044 -10.2719
    -9.1713  -8.5859  -8.1186  -6.2838  -5.7694  -5.2908  -4.6484   4.6933
     5.7328   7.5051   8.3987

     occupation numbers 
     1.0000   1.0000   1.0000   1.0000   1.0000   1.0000   1.0000   1.0000
     1.0000   1.0000   1.0000   1.0000   1.0000   1.0000   1.0000   0.0000
     0.0000   0.0000   0.0000

          k = 0.4167-0.4330-0.0000 (  3928 PWs)   bands (ev):

   -26.2211 -26.2190 -16.5996 -15.0091 -13.5425 -13.0497 -10.1813  -9.5047
    -9.2666  -8.2972  -7.9245  -6.5150  -5.6640  -4.6425  -4.6261   4.3575
     5.2118   6.9296   7.1929

     occupation numbers 
     1.0000   1.0000   1.0000   1.0000   1.0000   1.0000   1.0000   1.0000
     1.0000   1.0000   1.0000   1.0000   1.0000   1.0000   1.0000   0.0000
     0.0000   0.0000   0.0000

          k = 0.4167-0.3368-0.0000 (  3940 PWs)   bands (ev):

   -26.2803 -26.2764 -17.2153 -15.0224 -14.0983 -12.7239  -9.8558  -9.2558
    -8.6415  -7.8156  -7.4896  -6.6545  -5.3550  -4.5950  -3.9799   3.4343
     4.2184   5.5552   7.6935

     occupation numbers 
     1.0000   1.0000   1.0000   1.0000   1.0000   1.0000   1.0000   1.0000
     1.0000   1.0000   1.0000   1.0000   1.0000   1.0000   1.0000   0.0000
     0.0000   0.0000   0.0000

          k =-0.5000 0.2887 0.0000 (  3930 PWs)   bands (ev):

   -26.2776 -26.2749 -16.9872 -15.4016 -13.9210 -13.1916  -9.8109  -9.2864
    -8.1934  -7.8076  -7.1379  -6.8120  -5.2564  -4.5606  -3.7132   2.7263
     3.9444   4.9718   7.8543

     occupation numbers 
     1.0000   1.0000   1.0000   1.0000   1.0000   1.0000   1.0000   1.0000
     1.0000   1.0000   1.0000   1.0000   1.0000   1.0000   1.0000   0.0000
     0.0000   0.0000   0.0000

          k =-0.5000 0.3849 0.0000 (  3940 PWs)   bands (ev):

   -26.2803 -26.2764 -17.2153 -15.0224 -14.0983 -12.7239  -9.8558  -9.2558
    -8.6415  -7.8156  -7.4896  -6.6545  -5.3550  -4.5949  -3.9799   3.4343
     4.2184   5.5552   7.6936

     occupation numbers 
     1.0000   1.0000   1.0000   1.0000   1.0000   1.0000   1.0000   1.0000
     1.0000   1.0000   1.0000   1.0000   1.0000   1.0000   1.0000   0.0000
     0.0000   0.0000   0.0000

          k =-0.5000 0.4811 0.0000 (  3927 PWs)   bands (ev):

   -26.2851 -26.2796 -17.5184 -14.7897 -13.6283 -12.0103  -9.9893  -9.6914
    -9.1345  -8.2959  -7.6613  -6.4005  -5.5004  -4.6614  -4.5101   4.3163
     5.3399   6.8597   7.1808

     occupation numbers 
     1.0000   1.0000   1.0000   1.0000   1.0000   1.0000   1.0000   1.0000
     1.0000   1.0000   1.0000   1.0000   1.0000   1.0000   1.0000   0.0000
     0.0000   0.0000   0.0000

          k =-0.5000 0.5774 0.0000 (  3924 PWs)   bands (ev):

   -26.2875 -26.2813 -17.6340 -14.8342 -12.9373 -11.8927 -10.0322  -9.9497
    -9.5514  -8.5110  -7.6246  -6.3192  -5.3400  -5.0786  -4.5728   4.6140
     5.8943   6.7389   8.8090

     occupation numbers 
     1.0000   1.0000   1.0000   1.0000   1.0000   1.0000   1.0000   1.0000
     1.0000   1.0000   1.0000   1.0000   1.0000   1.0000   1.0000   0.0000
     0.0000   0.0000   0.0000

          k =-0.5000 0.6736 0.0000 (  3927 PWs)   bands (ev):

   -26.2851 -26.2796 -17.5184 -14.7897 -13.6283 -12.0103  -9.9892  -9.6914
    -9.1345  -8.2959  -7.6613  -6.4005  -5.5004  -4.6614  -4.5101   4.3163
     5.3399   6.8598   7.1808

     occupation numbers 
     1.0000   1.0000   1.0000   1.0000   1.0000   1.0000   1.0000   1.0000
     1.0000   1.0000   1.0000   1.0000   1.0000   1.0000   1.0000   0.0000
     0.0000   0.0000   0.0000

          k =-0.5000 0.7698 0.0000 (  3940 PWs)   bands (ev):

   -26.2803 -26.2764 -17.2153 -15.0224 -14.0983 -12.7239  -9.8558  -9.2558
    -8.6415  -7.8156  -7.4896  -6.6545  -5.3550  -4.5949  -3.9799   3.4343
     4.2184   5.5553   7.6938

     occupation numbers 
     1.0000   1.0000   1.0000   1.0000   1.0000   1.0000   1.0000   1.0000
     1.0000   1.0000   1.0000   1.0000   1.0000   1.0000   1.0000   0.0000
     0.0000   0.0000   0.0000

          k =-0.5000-0.2887 0.0001 (  3930 PWs)   bands (ev):

   -26.2776 -26.2749 -16.9872 -15.4016 -13.9210 -13.1916  -9.8109  -9.2864
    -8.1934  -7.8076  -7.1379  -6.8120  -5.2564  -4.5606  -3.7132   2.7263
     3.9444   4.9718   7.8520

     occupation numbers 
     1.0000   1.0000   1.0000   1.0000   1.0000   1.0000   1.0000   1.0000
     1.0000   1.0000   1.0000   1.0000   1.0000   1.0000   1.0000   0.0000
     0.0000   0.0000   0.0000

     the Fermi energy is     0.2331 ev

!    total energy              =    -189.94064114 Ry
     Harris-Foulkes estimate   =    -189.94064114 Ry
     estimated scf accuracy    <          1.1E-09 Ry

     total all-electron energy =      -701.912756 Ry

     The total energy is the sum of the following terms:

     one-electron contribution =   -1506.89714265 Ry
     hartree contribution      =     763.09650040 Ry
     xc contribution           =     -37.16246938 Ry
     ewald contribution        =     636.01910727 Ry
     one-center paw contrib.   =     -44.99663677 Ry
      -> PAW hartree energy AE =     117.52035268 Ry
      -> PAW hartree energy PS =    -117.44065824 Ry
      -> PAW xc energy AE      =     -80.45706900 Ry
      -> PAW xc energy PS      =      35.38073780 Ry
      -> total E_H with PAW    =     763.17619484 Ry
      -> total E_XC with PAW   =     -82.23880059 Ry
     smearing contrib. (-TS)   =      -0.00000000 Ry

     convergence has been achieved in  11 iterations

     negative rho (up, down):  6.398E-04 0.000E+00

     Forces acting on atoms (cartesian axes, Ry/au):

     atom    1 type  1   force =    -0.00000125   -0.00000129   -0.00921673
     atom    2 type  1   force =    -0.00000360   -0.00000264    0.00043037
     atom    3 type  1   force =     0.00000063    0.00000093    0.00922727
     atom    4 type  1   force =     0.00000247    0.00000201   -0.00047494
     atom    5 type  2   force =     0.00000254    0.00000184    0.01753405
     atom    6 type  2   force =    -0.00000078   -0.00000086   -0.01750002
     The non-local contrib.  to forces
     atom    1 type  1   force =    -0.00000455   -0.00000409   -0.40588820
     atom    2 type  1   force =    -0.00000576   -0.00000429    0.08414538
     atom    3 type  1   force =     0.00000260    0.00000298    0.40590311
     atom    4 type  1   force =     0.00000326    0.00000290   -0.08416784
     atom    5 type  2   force =     0.00004174    0.00003065    3.17145441
     atom    6 type  2   force =    -0.00001576   -0.00001610   -3.17146684
     The ionic contribution  to forces
     atom    1 type  1   force =     0.00006601    0.00004732  -13.36767802
     atom    2 type  1   force =    -0.00000457    0.00000014   -9.40120984
     atom    3 type  1   force =    -0.00002607   -0.00002490   13.36783775
     atom    4 type  1   force =    -0.00000452   -0.00000517    9.40118888
     atom    5 type  2   force =    -0.00005247   -0.00003943  -66.85280486
     atom    6 type  2   force =     0.00002161    0.00002204   66.85266609
     The local contribution  to forces
     atom    1 type  1   force =    -0.00006247   -0.00004437   13.75594007
     atom    2 type  1   force =     0.00000684    0.00000152    9.31877838
     atom    3 type  1   force =     0.00002389    0.00002273  -13.75614333
     atom    4 type  1   force =     0.00000346    0.00000416   -9.31876079
     atom    5 type  2   force =     0.00001356    0.00001070   63.70913310
     atom    6 type  2   force =    -0.00000657   -0.00000666  -63.70903538
     The core correction contribution to forces
     atom    1 type  1   force =    -0.00000017   -0.00000008    0.00839169
     atom    2 type  1   force =     0.00000003    0.00000002   -0.00131361
     atom    3 type  1   force =     0.00000031    0.00000017   -0.00847291
     atom    4 type  1   force =     0.00000034    0.00000020    0.00117119
     atom    5 type  2   force =    -0.00000012   -0.00000009   -0.01024751
     atom    6 type  2   force =     0.00000001    0.00000003    0.01024646
     The Hubbard contrib.    to forces
     atom    1 type  1   force =     0.00000000    0.00000000    0.00000000
     atom    2 type  1   force =     0.00000000    0.00000000    0.00000000
     atom    3 type  1   force =     0.00000000    0.00000000    0.00000000
     atom    4 type  1   force =     0.00000000    0.00000000    0.00000000
     atom    5 type  2   force =     0.00000000    0.00000000    0.00000000
     atom    6 type  2   force =     0.00000000    0.00000000    0.00000000
     The SCF correction term to forces
     atom    1 type  1   force =     0.00000002   -0.00000001   -0.00002112
     atom    2 type  1   force =    -0.00000004    0.00000003   -0.00000878
     atom    3 type  1   force =     0.00000001    0.00000001    0.00006380
     atom    4 type  1   force =     0.00000002   -0.00000002    0.00005477
     atom    5 type  2   force =    -0.00000008    0.00000007   -0.00003993
     atom    6 type  2   force =     0.00000004   -0.00000011    0.00005082

     Total force =     0.028003     Total SCF correction =     0.000108


     Computing stress (Cartesian axis) and pressure


     negative rho (up, down):  6.398E-04 0.000E+00
          total   stress  (Ry/bohr**3)                   (kbar)     P=  -23.31
  -0.00014840  -0.00000000  -0.00000001        -21.83     -0.00     -0.00
  -0.00000000  -0.00014840  -0.00000000         -0.00    -21.83     -0.00
  -0.00000001  -0.00000000  -0.00017858         -0.00     -0.00    -26.27

     kinetic stress (kbar)   9163.81     -0.00     -0.01
                               -0.00   9163.81     -0.01
                               -0.01     -0.01   8324.21

     local   stress (kbar)-286809.80      0.01     -0.02
                                0.01-286809.82     -0.02
                               -0.02     -0.02 276372.51

     nonloc. stress (kbar)   3143.02     -0.00     -0.00
                               -0.00   3143.02     -0.00
                               -0.00     -0.00   2879.61

     hartree stress (kbar) 141385.38     -0.00      0.01
                               -0.00 141385.39      0.00
                                0.01      0.00-136841.30

     exc-cor stress (kbar)  -1130.23     -0.00      0.00
                               -0.00  -1130.23      0.00
                                0.00      0.00  -1126.90

     corecor stress (kbar)   -939.38      0.00      0.00
                                0.00   -939.38      0.00
                                0.00      0.00   -931.71

     ewald   stress (kbar) 135165.36     -0.01      0.03
                               -0.01 135165.37      0.02
                                0.03      0.02-148702.69

     hubbard stress (kbar)      0.00      0.00      0.00
                                0.00      0.00      0.00
                                0.00      0.00      0.00

     london  stress (kbar)      0.00      0.00      0.00
                                0.00      0.00      0.00
                                0.00      0.00      0.00

     DFT-D3  stress (kbar)      0.00      0.00      0.00
                                0.00      0.00      0.00
                                0.00      0.00      0.00

     XDM     stress (kbar)      0.00      0.00      0.00
                                0.00      0.00      0.00
                                0.00      0.00      0.00

     dft-nl  stress (kbar)      0.00      0.00      0.00
                                0.00      0.00      0.00
                                0.00      0.00      0.00

     TS-vdW  stress (kbar)      0.00      0.00      0.00
                                0.00      0.00      0.00
                                0.00      0.00      0.00

     3D-RISM stress (kbar)      0.00      0.00      0.00
                                0.00      0.00      0.00
                                0.00      0.00      0.00



     Writing output data file pwscf.save\

     init_run     :     15.06s CPU      8.52s WALL (       1 calls)
     electrons    :    264.08s CPU    187.88s WALL (       1 calls)
     forces       :      7.55s CPU      1.69s WALL (       1 calls)
     stress       :     20.06s CPU      5.53s WALL (       1 calls)

     Called by init_run:
     wfcinit      :      5.05s CPU      3.60s WALL (       1 calls)
     wfcinit:atom :      0.11s CPU      0.11s WALL (      74 calls)
     wfcinit:wfcr :      4.30s CPU      2.79s WALL (      74 calls)
     potinit      :      4.33s CPU      0.67s WALL (       1 calls)
     hinit0       :      5.61s CPU      4.10s WALL (       1 calls)

     Called by electrons:
     c_bands      :    232.17s CPU    167.93s WALL (      11 calls)
     sum_band     :     26.22s CPU     16.21s WALL (      11 calls)
     v_of_rho     :      1.55s CPU      0.90s WALL (      12 calls)
     v_h          :      0.03s CPU      0.06s WALL (      12 calls)
     v_xc         :      1.78s CPU      0.97s WALL (      14 calls)
     newd         :      1.36s CPU      1.12s WALL (      12 calls)
     PAW_pot      :      2.98s CPU      1.74s WALL (      12 calls)
     mix_rho      :      0.23s CPU      0.17s WALL (      11 calls)

     Called by c_bands:
     init_us_2    :      3.12s CPU      1.30s WALL (    1850 calls)
     ccgdiagg     :    197.47s CPU    144.62s WALL (     814 calls)
     wfcrot       :     37.78s CPU     24.87s WALL (     814 calls)

     Called by sum_band:
     sum_band:bec :      0.19s CPU      0.42s WALL (     814 calls)
     addusdens    :      1.72s CPU      1.63s WALL (      11 calls)

     Called by *cgdiagg:
     h_psi        :    165.73s CPU    109.99s WALL (   43822 calls)
     s_psi        :     26.25s CPU     22.13s WALL (   86830 calls)
     cdiaghg      :      0.05s CPU      0.17s WALL (     814 calls)

     Called by h_psi:
     h_psi:pot    :    160.66s CPU    104.16s WALL (   43822 calls)
     h_psi:calbec :     20.36s CPU     13.28s WALL (   43822 calls)
     vloc_psi     :    125.61s CPU     80.51s WALL (   43822 calls)
     add_vuspsi   :     14.47s CPU     10.14s WALL (   43822 calls)
     hs_1psi      :    153.86s CPU    106.47s WALL (   43008 calls)
     s_1psi       :     27.72s CPU     23.92s WALL (   43008 calls)

     General routines
     calbec       :     35.33s CPU     24.12s WALL (   88014 calls)
     fft          :      0.14s CPU      0.15s WALL (     179 calls)
     ffts         :      0.00s CPU      0.01s WALL (      23 calls)
     fftw         :     93.98s CPU     54.88s WALL (  133154 calls)
     interpolate  :      0.03s CPU      0.05s WALL (      12 calls)

     Parallel routines

     PAW routines
     PAW_pot      :      2.98s CPU      1.74s WALL (      12 calls)

     PWSCF        :   5m 8.53s CPU   3m26.08s WALL


   This run was terminated on:  17:21:30  19Nov2024            

=------------------------------------------------------------------------------=
   JOB DONE.
=------------------------------------------------------------------------------=
