
     Program PWSCF v.6.4.1 starts on 19Nov2024 at 17:14:52 

     This program is part of the open-source Quantum ESPRESSO suite
     for quantum simulation of materials; please cite
         "P. Giannozzi et al., J. Phys.:Condens. Matter 21 395502 (2009);
         "P. Giannozzi et al., J. Phys.:Condens. Matter 29 465901 (2017);
          URL http://www.quantum-espresso.org", 
     in publications or presentations arising from this work. More details at
     http://www.quantum-espresso.org/quote

     Parallel version (MPI & OpenMP), running on      12 processor cores
     Number of MPI processes:                 1
     Threads/MPI process:                    12

     MPI processes distributed on     1 nodes
     Waiting for input...
     Reading input from standard input

     Current dimensions of program PWSCF are:
     Max number of different atomic species (ntypx) = 10
     Max number of k-points (npk) =  40000
     Max angular momentum in pseudopotentials (lmaxx) =  3
               file C.pbesol-n-kjpaw_psl.1.0.0.UPF: wavefunction(s)  2S 2P renormalized
               file F.pbesol-n-kjpaw_psl.1.0.0.UPF: wavefunction(s)  2S 2P renormalized

     Subspace diagonalization in iterative solution of the eigenvalue problem:
     a serial algorithm will be used


     G-vector sticks info
     --------------------
     sticks:   dense  smooth     PW     G-vecs:    dense   smooth      PW
     Sum         583     295     97                88889    31423    6251



     bravais-lattice index     =            0
     lattice parameter (alat)  =       4.8507  a.u.
     unit-cell volume          =     769.2439 (a.u.)^3
     number of atoms/cell      =            6
     number of atomic types    =            2
     number of electrons       =        30.00
     number of Kohn-Sham states=           19
     kinetic-energy cutoff     =      45.0000  Ry
     charge density cutoff     =     360.0000  Ry
     convergence threshold     =      1.2E-09
     mixing beta               =       0.4000
     number of iterations used =            8  plain     mixing
     Exchange-correlation      = SLA PW PSX PSC ( 1  4 10  8 0 0)

     celldm(1)=   4.850737  celldm(2)=   0.000000  celldm(3)=   0.000000
     celldm(4)=   0.000000  celldm(5)=   0.000000  celldm(6)=   0.000000

     crystal axes: (cart. coord. in units of alat)
               a(1) = (   1.000000   0.000000   0.000000 )  
               a(2) = (   0.500000   0.866025   0.000000 )  
               a(3) = (   0.000640   0.000376   7.782340 )  

     reciprocal axes: (cart. coord. in units 2 pi/alat)
               b(1) = (  1.000000 -0.577350 -0.000054 )  
               b(2) = (  0.000000  1.154701 -0.000056 )  
               b(3) = (  0.000000  0.000000  0.128496 )  


     PseudoPot. # 1 for C  read from file:
     .\C.pbesol-n-kjpaw_psl.1.0.0.UPF
     MD5 check sum: f9b2fe17d1f478429498b05d17159f9e
     Pseudo is Projector augmented-wave + core cor, Zval =  4.0
     Generated using "atomic" code by A. Dal Corso v.6.3
     Shape of augmentation charge: PSQ
     Using radial grid of 1073 points,  4 beta functions with: 
                l(1) =   0
                l(2) =   0
                l(3) =   1
                l(4) =   1
     Q(r) pseudized with 0 coefficients 


     PseudoPot. # 2 for F  read from file:
     .\F.pbesol-n-kjpaw_psl.1.0.0.UPF
     MD5 check sum: d939582bcd23f1ece12cfc4fab8d9d36
     Pseudo is Projector augmented-wave + core cor, Zval =  7.0
     Generated using "atomic" code by A. Dal Corso v.6.3
     Shape of augmentation charge: PSQ
     Using radial grid of 1105 points,  4 beta functions with: 
                l(1) =   0
                l(2) =   0
                l(3) =   1
                l(4) =   1
     Q(r) pseudized with 0 coefficients 


     atomic species   valence    mass     pseudopotential
        C              4.00    12.01070     C ( 1.00)
        F              7.00    18.99840     F ( 1.00)

     No symmetry found


                                    s                        frac. trans.

      isym =  1     identity                                     

 cryst.   s( 1) = (     1          0          0      )
                  (     0          1          0      )
                  (     0          0          1      )

 cart.    s( 1) = (  1.0000000  0.0000000  0.0000000 )
                  (  0.0000000  1.0000000  0.0000000 )
                  (  0.0000000  0.0000000  1.0000000 )


   Cartesian axes

     site n.     atom                  positions (alat units)
         1           C   tau(   1) = (   0.0003519   0.0002070   3.9178512  )
         2           C   tau(   2) = (   0.5003526   0.2888824   4.1138039  )
         3           C   tau(   3) = (   1.0003491   0.5775541   4.9151223  )
         4           C   tau(   4) = (   0.5003488   0.2888789   4.7191654  )
         5           F   tau(   5) = (   0.0003452   0.0002019   3.3809522  )
         6           F   tau(   6) = (   1.0003518   0.5775569   5.4520245  )

   Crystallographic axes

     site n.     atom                  positions (cryst. coord.)
         1           C   tau(   1) = (  0.0000192  0.0000206  0.5034284  )
         2           C   tau(   2) = (  0.3333424  0.3333434  0.5286075  )
         3           C   tau(   3) = (  0.6666304  0.6666281  0.6315738  )
         4           C   tau(   4) = (  0.3333076  0.3333056  0.6063941  )
         5           F   tau(   5) = (  0.0000446  0.0000447  0.4344390  )
         6           F   tau(   6) = (  0.6666024  0.6666014  0.7005636  )

     number of k points=    61  Marzari-Vanderbilt smearing, width (Ry)=  0.0200
                       cart. coord. in units 2pi/alat
        k(    1) = (   0.0000000   0.0000000   0.0000000), wk =   0.0165289
        k(    2) = (   0.0000000   0.1049728  -0.0000051), wk =   0.0330579
        k(    3) = (   0.0000000   0.2099456  -0.0000101), wk =   0.0330579
        k(    4) = (   0.0000000   0.3149184  -0.0000152), wk =   0.0330579
        k(    5) = (   0.0000000   0.4198911  -0.0000203), wk =   0.0330579
        k(    6) = (   0.0000000   0.5248639  -0.0000253), wk =   0.0330579
        k(    7) = (   0.0909091  -0.0524864  -0.0000049), wk =   0.0330579
        k(    8) = (   0.0909091   0.0524864  -0.0000100), wk =   0.0330579
        k(    9) = (   0.0909091   0.1574592  -0.0000151), wk =   0.0330579
        k(   10) = (   0.0909091   0.2624319  -0.0000202), wk =   0.0330579
        k(   11) = (   0.0909091   0.3674047  -0.0000252), wk =   0.0330579
        k(   12) = (   0.0909091   0.4723775  -0.0000303), wk =   0.0330579
        k(   13) = (   0.0909091  -0.5773503   0.0000204), wk =   0.0330579
        k(   14) = (   0.0909091  -0.4723775   0.0000153), wk =   0.0330579
        k(   15) = (   0.0909091  -0.3674048   0.0000103), wk =   0.0330579
        k(   16) = (   0.0909091  -0.2624320   0.0000052), wk =   0.0330579
        k(   17) = (   0.0909091  -0.1574592   0.0000001), wk =   0.0330579
        k(   18) = (   0.1818182  -0.1049728  -0.0000099), wk =   0.0330579
        k(   19) = (   0.1818182  -0.0000000  -0.0000150), wk =   0.0330579
        k(   20) = (   0.1818182   0.1049728  -0.0000200), wk =   0.0330579
        k(   21) = (   0.1818182   0.2099455  -0.0000251), wk =   0.0330579
        k(   22) = (   0.1818182   0.3149183  -0.0000302), wk =   0.0330579
        k(   23) = (   0.1818182   0.4198911  -0.0000352), wk =   0.0330579
        k(   24) = (   0.1818182  -0.6298367   0.0000154), wk =   0.0330579
        k(   25) = (   0.1818182  -0.5248639   0.0000104), wk =   0.0330579
        k(   26) = (   0.1818182  -0.4198912   0.0000053), wk =   0.0330579
        k(   27) = (   0.1818182  -0.3149184   0.0000002), wk =   0.0330579
        k(   28) = (   0.1818182  -0.2099456  -0.0000048), wk =   0.0330579
        k(   29) = (   0.2727273  -0.1574592  -0.0000148), wk =   0.0330579
        k(   30) = (   0.2727273  -0.0524864  -0.0000199), wk =   0.0330579
        k(   31) = (   0.2727273   0.0524864  -0.0000250), wk =   0.0330579
        k(   32) = (   0.2727273   0.1574591  -0.0000300), wk =   0.0330579
        k(   33) = (   0.2727273   0.2624319  -0.0000351), wk =   0.0330579
        k(   34) = (   0.2727273   0.3674047  -0.0000402), wk =   0.0330579
        k(   35) = (   0.2727273  -0.6823231   0.0000105), wk =   0.0330579
        k(   36) = (   0.2727273  -0.5773503   0.0000054), wk =   0.0330579
        k(   37) = (   0.2727273  -0.4723776   0.0000004), wk =   0.0330579
        k(   38) = (   0.2727273  -0.3674048  -0.0000047), wk =   0.0330579
        k(   39) = (   0.2727273  -0.2624320  -0.0000098), wk =   0.0330579
        k(   40) = (   0.3636364  -0.2099456  -0.0000198), wk =   0.0330579
        k(   41) = (   0.3636364  -0.1049728  -0.0000249), wk =   0.0330579
        k(   42) = (   0.3636364  -0.0000000  -0.0000299), wk =   0.0330579
        k(   43) = (   0.3636364   0.1049727  -0.0000350), wk =   0.0330579
        k(   44) = (   0.3636364   0.2099455  -0.0000401), wk =   0.0330579
        k(   45) = (   0.3636364   0.3149183  -0.0000451), wk =   0.0330579
        k(   46) = (   0.3636364  -0.7348095   0.0000056), wk =   0.0330579
        k(   47) = (   0.3636364  -0.6298368   0.0000005), wk =   0.0330579
        k(   48) = (   0.3636364  -0.5248640  -0.0000046), wk =   0.0330579
        k(   49) = (   0.3636364  -0.4198912  -0.0000097), wk =   0.0330579
        k(   50) = (   0.3636364  -0.3149184  -0.0000147), wk =   0.0330579
        k(   51) = (   0.4545455  -0.2624320  -0.0000247), wk =   0.0330579
        k(   52) = (   0.4545455  -0.1574592  -0.0000298), wk =   0.0330579
        k(   53) = (   0.4545455  -0.0524865  -0.0000349), wk =   0.0330579
        k(   54) = (   0.4545455   0.0524863  -0.0000399), wk =   0.0330579
        k(   55) = (   0.4545455   0.1574591  -0.0000450), wk =   0.0330579
        k(   56) = (   0.4545455   0.2624319  -0.0000501), wk =   0.0330579
        k(   57) = (   0.4545455  -0.7872959   0.0000006), wk =   0.0330579
        k(   58) = (   0.4545455  -0.6823232  -0.0000045), wk =   0.0330579
        k(   59) = (   0.4545455  -0.5773504  -0.0000095), wk =   0.0330579
        k(   60) = (   0.4545455  -0.4723776  -0.0000146), wk =   0.0330579
        k(   61) = (   0.4545455  -0.3674048  -0.0000197), wk =   0.0330579

                       cryst. coord.
        k(    1) = (   0.0000000   0.0000000   0.0000000), wk =   0.0165289
        k(    2) = (   0.0000000   0.0909091   0.0000000), wk =   0.0330579
        k(    3) = (   0.0000000   0.1818182   0.0000000), wk =   0.0330579
        k(    4) = (   0.0000000   0.2727273   0.0000000), wk =   0.0330579
        k(    5) = (   0.0000000   0.3636364   0.0000000), wk =   0.0330579
        k(    6) = (   0.0000000   0.4545455  -0.0000000), wk =   0.0330579
        k(    7) = (   0.0909091   0.0000000   0.0000000), wk =   0.0330579
        k(    8) = (   0.0909091   0.0909091   0.0000000), wk =   0.0330579
        k(    9) = (   0.0909091   0.1818182   0.0000000), wk =   0.0330579
        k(   10) = (   0.0909091   0.2727273   0.0000000), wk =   0.0330579
        k(   11) = (   0.0909091   0.3636364   0.0000000), wk =   0.0330579
        k(   12) = (   0.0909091   0.4545455   0.0000000), wk =   0.0330579
        k(   13) = (   0.0909091  -0.4545455   0.0000000), wk =   0.0330579
        k(   14) = (   0.0909091  -0.3636364  -0.0000000), wk =   0.0330579
        k(   15) = (   0.0909091  -0.2727273   0.0000000), wk =   0.0330579
        k(   16) = (   0.0909091  -0.1818182   0.0000000), wk =   0.0330579
        k(   17) = (   0.0909091  -0.0909091   0.0000000), wk =   0.0330579
        k(   18) = (   0.1818182   0.0000000   0.0000000), wk =   0.0330579
        k(   19) = (   0.1818182   0.0909091   0.0000000), wk =   0.0330579
        k(   20) = (   0.1818182   0.1818182   0.0000000), wk =   0.0330579
        k(   21) = (   0.1818182   0.2727273   0.0000000), wk =   0.0330579
        k(   22) = (   0.1818182   0.3636364   0.0000000), wk =   0.0330579
        k(   23) = (   0.1818182   0.4545455  -0.0000000), wk =   0.0330579
        k(   24) = (   0.1818182  -0.4545455   0.0000000), wk =   0.0330579
        k(   25) = (   0.1818182  -0.3636364   0.0000000), wk =   0.0330579
        k(   26) = (   0.1818182  -0.2727273   0.0000000), wk =   0.0330579
        k(   27) = (   0.1818182  -0.1818182   0.0000000), wk =   0.0330579
        k(   28) = (   0.1818182  -0.0909091   0.0000000), wk =   0.0330579
        k(   29) = (   0.2727273   0.0000000   0.0000000), wk =   0.0330579
        k(   30) = (   0.2727273   0.0909091   0.0000000), wk =   0.0330579
        k(   31) = (   0.2727273   0.1818182   0.0000000), wk =   0.0330579
        k(   32) = (   0.2727273   0.2727273   0.0000000), wk =   0.0330579
        k(   33) = (   0.2727273   0.3636364   0.0000000), wk =   0.0330579
        k(   34) = (   0.2727273   0.4545455   0.0000000), wk =   0.0330579
        k(   35) = (   0.2727273  -0.4545455   0.0000000), wk =   0.0330579
        k(   36) = (   0.2727273  -0.3636364  -0.0000000), wk =   0.0330579
        k(   37) = (   0.2727273  -0.2727273   0.0000000), wk =   0.0330579
        k(   38) = (   0.2727273  -0.1818182   0.0000000), wk =   0.0330579
        k(   39) = (   0.2727273  -0.0909091   0.0000000), wk =   0.0330579
        k(   40) = (   0.3636364   0.0000000   0.0000000), wk =   0.0330579
        k(   41) = (   0.3636364   0.0909091   0.0000000), wk =   0.0330579
        k(   42) = (   0.3636364   0.1818182   0.0000000), wk =   0.0330579
        k(   43) = (   0.3636364   0.2727273   0.0000000), wk =   0.0330579
        k(   44) = (   0.3636364   0.3636364   0.0000000), wk =   0.0330579
        k(   45) = (   0.3636364   0.4545455   0.0000000), wk =   0.0330579
        k(   46) = (   0.3636364  -0.4545455   0.0000000), wk =   0.0330579
        k(   47) = (   0.3636364  -0.3636364   0.0000000), wk =   0.0330579
        k(   48) = (   0.3636364  -0.2727273   0.0000000), wk =   0.0330579
        k(   49) = (   0.3636364  -0.1818182   0.0000000), wk =   0.0330579
        k(   50) = (   0.3636364  -0.0909091   0.0000000), wk =   0.0330579
        k(   51) = (   0.4545455   0.0000000   0.0000000), wk =   0.0330579
        k(   52) = (   0.4545455   0.0909091   0.0000000), wk =   0.0330579
        k(   53) = (   0.4545455   0.1818182   0.0000000), wk =   0.0330579
        k(   54) = (   0.4545455   0.2727273   0.0000000), wk =   0.0330579
        k(   55) = (   0.4545455   0.3636364   0.0000000), wk =   0.0330579
        k(   56) = (   0.4545455   0.4545455   0.0000000), wk =   0.0330579
        k(   57) = (   0.4545455  -0.4545455  -0.0000000), wk =   0.0330579
        k(   58) = (   0.4545455  -0.3636364   0.0000000), wk =   0.0330579
        k(   59) = (   0.4545455  -0.2727273   0.0000000), wk =   0.0330579
        k(   60) = (   0.4545455  -0.1818182   0.0000000), wk =   0.0330579
        k(   61) = (   0.4545455  -0.0909091   0.0000000), wk =   0.0330579

     Dense  grid:    88889 G-vectors     FFT dimensions: (  30,  30, 240)

     Smooth grid:    31423 G-vectors     FFT dimensions: (  24,  24, 162)

     Dynamical RAM for                 wfc:       1.14 MB

     Dynamical RAM for     wfc (w. buffer):      70.48 MB

     Dynamical RAM for           str. fact:       2.71 MB

     Dynamical RAM for           local pot:       0.00 MB

     Dynamical RAM for          nlocal pot:       2.87 MB

     Dynamical RAM for                qrad:       0.67 MB

     Dynamical RAM for          rho,v,vnew:       9.01 MB

     Dynamical RAM for               rhoin:       3.00 MB

     Dynamical RAM for            rho*nmix:      21.70 MB

     Dynamical RAM for           G-vectors:       5.33 MB

     Dynamical RAM for          h,s,v(r/c):       0.02 MB

     Dynamical RAM for          <psi|beta>:       0.01 MB

     Dynamical RAM for      wfcinit/wfcrot:       2.89 MB

     Dynamical RAM for           addusdens:      63.75 MB

     Dynamical RAM for          addusforce:      80.71 MB

     Dynamical RAM for         addusstress:      67.82 MB

     Estimated static dynamical RAM per process >     128.09 MB

     Estimated max dynamical RAM per process >     208.80 MB

     Check: negative core charge=   -0.000005

     Initial potential from superposition of free atoms

     starting charge   29.99983, renormalised to   30.00000

     negative rho (up, down):  5.058E-04 0.000E+00
     Starting wfcs are   24 randomized atomic wfcs
     Checking if some PAW data can be deallocated... 

     total cpu time spent up to now is       10.3 secs

     Self-consistent Calculation

     iteration #  1     ecut=    45.00 Ry     beta= 0.40
     CG style diagonalization
     ethr =  1.00E-02,  avg # of iterations =  3.1

     negative rho (up, down):  5.007E-04 0.000E+00

     total cpu time spent up to now is       23.8 secs

     total energy              =    -189.91429267 Ry
     Harris-Foulkes estimate   =    -190.04568646 Ry
     estimated scf accuracy    <       0.33872639 Ry

     iteration #  2     ecut=    45.00 Ry     beta= 0.40
     CG style diagonalization
     ethr =  1.13E-03,  avg # of iterations =  3.3

     negative rho (up, down):  5.786E-04 0.000E+00

     total cpu time spent up to now is       36.1 secs

     total energy              =    -189.93717862 Ry
     Harris-Foulkes estimate   =    -189.95843436 Ry
     estimated scf accuracy    <       0.05950144 Ry

     iteration #  3     ecut=    45.00 Ry     beta= 0.40
     CG style diagonalization
     ethr =  1.98E-04,  avg # of iterations =  3.4

     negative rho (up, down):  6.634E-04 0.000E+00

     total cpu time spent up to now is       51.1 secs

     total energy              =    -189.93899373 Ry
     Harris-Foulkes estimate   =    -189.94282638 Ry
     estimated scf accuracy    <       0.01074741 Ry

     iteration #  4     ecut=    45.00 Ry     beta= 0.40
     CG style diagonalization
     ethr =  3.58E-05,  avg # of iterations =  4.0

     negative rho (up, down):  6.625E-04 0.000E+00

     total cpu time spent up to now is       68.3 secs

     total energy              =    -189.94037285 Ry
     Harris-Foulkes estimate   =    -189.94067964 Ry
     estimated scf accuracy    <       0.00114164 Ry

     iteration #  5     ecut=    45.00 Ry     beta= 0.40
     CG style diagonalization
     c_bands:  1 eigenvalues not converged
     c_bands:  1 eigenvalues not converged
     c_bands:  1 eigenvalues not converged
     ethr =  3.81E-06,  avg # of iterations =  4.3

     negative rho (up, down):  6.481E-04 0.000E+00

     total cpu time spent up to now is       87.5 secs

     total energy              =    -189.94059854 Ry
     Harris-Foulkes estimate   =    -189.94064971 Ry
     estimated scf accuracy    <       0.00013086 Ry

     iteration #  6     ecut=    45.00 Ry     beta= 0.40
     CG style diagonalization
     ethr =  4.36E-07,  avg # of iterations =  3.9

     negative rho (up, down):  6.439E-04 0.000E+00

     total cpu time spent up to now is      103.2 secs

     total energy              =    -189.94063009 Ry
     Harris-Foulkes estimate   =    -189.94064251 Ry
     estimated scf accuracy    <       0.00003985 Ry

     iteration #  7     ecut=    45.00 Ry     beta= 0.40
     CG style diagonalization
     ethr =  1.33E-07,  avg # of iterations =  3.6

     negative rho (up, down):  6.409E-04 0.000E+00

     total cpu time spent up to now is      116.7 secs

     total energy              =    -189.94063848 Ry
     Harris-Foulkes estimate   =    -189.94063877 Ry
     estimated scf accuracy    <       0.00000109 Ry

     iteration #  8     ecut=    45.00 Ry     beta= 0.40
     CG style diagonalization
     ethr =  3.64E-09,  avg # of iterations =  4.2

     negative rho (up, down):  6.397E-04 0.000E+00

     total cpu time spent up to now is      132.1 secs

     total energy              =    -189.94063912 Ry
     Harris-Foulkes estimate   =    -189.94063914 Ry
     estimated scf accuracy    <       0.00000012 Ry

     iteration #  9     ecut=    45.00 Ry     beta= 0.40
     CG style diagonalization
     ethr =  4.15E-10,  avg # of iterations =  3.7

     negative rho (up, down):  6.396E-04 0.000E+00

     total cpu time spent up to now is      145.8 secs

     total energy              =    -189.94063916 Ry
     Harris-Foulkes estimate   =    -189.94063916 Ry
     estimated scf accuracy    <       0.00000003 Ry

     iteration # 10     ecut=    45.00 Ry     beta= 0.40
     CG style diagonalization
     ethr =  9.61E-11,  avg # of iterations =  3.7

     negative rho (up, down):  6.396E-04 0.000E+00

     total cpu time spent up to now is      159.7 secs

     total energy              =    -189.94063916 Ry
     Harris-Foulkes estimate   =    -189.94063917 Ry
     estimated scf accuracy    <       0.00000002 Ry

     iteration # 11     ecut=    45.00 Ry     beta= 0.40
     CG style diagonalization
     ethr =  6.03E-11,  avg # of iterations =  3.2

     negative rho (up, down):  6.396E-04 0.000E+00

     total cpu time spent up to now is      171.6 secs

     total energy              =    -189.94063917 Ry
     Harris-Foulkes estimate   =    -189.94063917 Ry
     estimated scf accuracy    <          1.7E-09 Ry

     iteration # 12     ecut=    45.00 Ry     beta= 0.40
     CG style diagonalization
     ethr =  5.64E-12,  avg # of iterations =  3.6

     negative rho (up, down):  6.398E-04 0.000E+00

     total cpu time spent up to now is      184.9 secs

     End of self-consistent calculation

          k = 0.0000 0.0000 0.0000 (  3897 PWs)   bands (ev):

   -27.2861 -27.2383 -21.4631 -18.0389 -12.1197  -9.3981  -6.2230  -5.8041
    -5.8041  -5.5417  -5.5417  -3.2696  -3.2695  -2.0120  -2.0119   1.9641
     4.3214   4.6322   4.6323

     occupation numbers 
     1.0000   1.0000   1.0000   1.0000   1.0000   1.0000   1.0000   1.0000
     1.0000   1.0000   1.0000   1.0000   1.0000   1.0000   1.0000   0.0000
     0.0000   0.0000   0.0000

          k = 0.0000 0.1050-0.0000 (  3893 PWs)   bands (ev):

   -27.2125 -27.1682 -21.2895 -17.8912 -12.0098  -9.3687  -6.6827  -6.1827
    -6.0305  -5.8251  -5.6643  -3.7745  -3.4740  -2.6300  -2.2249   2.3577
     4.2206   5.0736   5.1667

     occupation numbers 
     1.0000   1.0000   1.0000   1.0000   1.0000   1.0000   1.0000   1.0000
     1.0000   1.0000   1.0000   1.0000   1.0000   1.0000   1.0000   0.0000
     0.0000   0.0000   0.0000

          k = 0.0000 0.2099-0.0000 (  3897 PWs)   bands (ev):

   -27.0101 -26.9752 -20.7701 -17.4510 -11.7086  -9.3486  -8.1069  -7.4289
    -6.6069  -6.3139  -6.0083  -4.4961  -3.8736  -3.8570  -2.7061   2.8593
     4.0428   5.7589   6.1853

     occupation numbers 
     1.0000   1.0000   1.0000   1.0000   1.0000   1.0000   1.0000   1.0000
     1.0000   1.0000   1.0000   1.0000   1.0000   1.0000   1.0000   0.0000
     0.0000   0.0000   0.0000

          k = 0.0000 0.3149-0.0000 (  3917 PWs)   bands (ev):

   -26.7335 -26.7107 -19.9101 -16.7274 -11.4320 -10.2892  -9.4511  -8.6350
    -7.2892  -7.0048  -6.4634  -5.2935  -4.7461  -4.1897  -3.1817   2.7991
     4.2439   5.7576   7.3879

     occupation numbers 
     1.0000   1.0000   1.0000   1.0000   1.0000   1.0000   1.0000   1.0000
     1.0000   1.0000   1.0000   1.0000   1.0000   1.0000   1.0000   0.0000
     0.0000   0.0000   0.0000

          k = 0.0000 0.4199-0.0000 (  3939 PWs)   bands (ev):

   -26.4664 -26.4545 -18.7305 -15.7509 -12.8540 -11.2130 -10.2517  -8.9499
    -7.8483  -7.5605  -6.8717  -6.2221  -5.0564  -4.4234  -3.5201   2.6486
     4.3854   5.3009   7.2491

     occupation numbers 
     1.0000   1.0000   1.0000   1.0000   1.0000   1.0000   1.0000   1.0000
     1.0000   1.0000   1.0000   1.0000   1.0000   1.0000   1.0000   0.0000
     0.0000   0.0000   0.0000

          k = 0.0000 0.5249-0.0000 (  3951 PWs)   bands (ev):

   -26.3004 -26.2961 -17.3675 -15.0859 -14.2075 -12.7206  -9.9040  -9.2125
    -8.1540  -7.7864  -7.1071  -6.7441  -5.2317  -4.5451  -3.6916   2.6971
     4.0489   4.9865   7.6487

     occupation numbers 
     1.0000   1.0000   1.0000   1.0000   1.0000   1.0000   1.0000   1.0000
     1.0000   1.0000   1.0000   1.0000   1.0000   1.0000   1.0000   0.0000
     0.0000   0.0000   0.0000

          k = 0.0909-0.0525-0.0000 (  3893 PWs)   bands (ev):

   -27.2125 -27.1682 -21.2895 -17.8912 -12.0098  -9.3687  -6.6827  -6.1827
    -6.0305  -5.8251  -5.6643  -3.7745  -3.4740  -2.6300  -2.2249   2.3577
     4.2206   5.0736   5.1665

     occupation numbers 
     1.0000   1.0000   1.0000   1.0000   1.0000   1.0000   1.0000   1.0000
     1.0000   1.0000   1.0000   1.0000   1.0000   1.0000   1.0000   0.0000
     0.0000   0.0000   0.0000

          k = 0.0909 0.0525-0.0000 (  3893 PWs)   bands (ev):

   -27.2125 -27.1682 -21.2895 -17.8912 -12.0098  -9.3687  -6.6827  -6.1827
    -6.0305  -5.8251  -5.6644  -3.7745  -3.4740  -2.6300  -2.2249   2.3577
     4.2206   5.0736   5.1665

     occupation numbers 
     1.0000   1.0000   1.0000   1.0000   1.0000   1.0000   1.0000   1.0000
     1.0000   1.0000   1.0000   1.0000   1.0000   1.0000   1.0000   0.0000
     0.0000   0.0000   0.0000

          k = 0.0909 0.1575-0.0000 (  3905 PWs)   bands (ev):

   -27.0744 -27.0366 -20.9431 -17.5972 -11.8031  -9.3359  -7.5283  -6.9614
    -6.6541  -6.2675  -5.7976  -4.1873  -4.0537  -3.2507  -2.7565   2.9073
     4.2547   5.4273   5.8865

     occupation numbers 
     1.0000   1.0000   1.0000   1.0000   1.0000   1.0000   1.0000   1.0000
     1.0000   1.0000   1.0000   1.0000   1.0000   1.0000   1.0000   0.0000
     0.0000   0.0000   0.0000

          k = 0.0909 0.2624-0.0000 (  3907 PWs)   bands (ev):

   -26.8345 -26.8073 -20.2528 -17.0146 -11.4691  -9.5417  -9.0327  -8.1534
    -7.4938  -6.9412  -6.2051  -4.9696  -4.5032  -4.0190  -3.3454   3.4245
     4.3294   6.1045   6.5597

     occupation numbers 
     1.0000   1.0000   1.0000   1.0000   1.0000   1.0000   1.0000   1.0000
     1.0000   1.0000   1.0000   1.0000   1.0000   1.0000   1.0000   0.0000
     0.0000   0.0000   0.0000

          k = 0.0909 0.3674-0.0000 (  3928 PWs)   bands (ev):

   -26.5613 -26.5454 -19.2295 -16.1586 -11.8505 -10.7168 -10.0170  -8.8345
    -8.1831  -7.5316  -6.8271  -5.8191  -4.9514  -4.4144  -3.7285   3.3996
     4.6695   6.0694   7.2143

     occupation numbers 
     1.0000   1.0000   1.0000   1.0000   1.0000   1.0000   1.0000   1.0000
     1.0000   1.0000   1.0000   1.0000   1.0000   1.0000   1.0000   0.0000
     0.0000   0.0000   0.0000

          k = 0.0909 0.4724-0.0000 (  3937 PWs)   bands (ev):

   -26.3432 -26.3360 -17.9225 -15.1171 -13.7016 -11.9200 -10.0288  -9.1419
    -8.5893  -7.8009  -7.3697  -6.4564  -5.2835  -4.5626  -3.9637   3.4296
     4.5580   5.6854   7.5301

     occupation numbers 
     1.0000   1.0000   1.0000   1.0000   1.0000   1.0000   1.0000   1.0000
     1.0000   1.0000   1.0000   1.0000   1.0000   1.0000   1.0000   0.0000
     0.0000   0.0000   0.0000

          k = 0.0909-0.5774 0.0000 (  3936 PWs)   bands (ev):

   -26.2589 -26.2564 -16.8694 -15.2834 -13.8054 -13.1319  -9.7874  -9.3108
    -8.7563  -7.8252  -7.6001  -6.6916  -5.4019  -4.6106  -4.0457   3.6368
     4.1094   5.6623   7.7150

     occupation numbers 
     1.0000   1.0000   1.0000   1.0000   1.0000   1.0000   1.0000   1.0000
     1.0000   1.0000   1.0000   1.0000   1.0000   1.0000   1.0000   0.0000
     0.0000   0.0000   0.0000

          k = 0.0909-0.4724 0.0000 (  3937 PWs)   bands (ev):

   -26.3432 -26.3360 -17.9225 -15.1171 -13.7016 -11.9200 -10.0288  -9.1419
    -8.5893  -7.8010  -7.3697  -6.4564  -5.2835  -4.5626  -3.9637   3.4296
     4.5580   5.6852   7.5301

     occupation numbers 
     1.0000   1.0000   1.0000   1.0000   1.0000   1.0000   1.0000   1.0000
     1.0000   1.0000   1.0000   1.0000   1.0000   1.0000   1.0000   0.0000
     0.0000   0.0000   0.0000

          k = 0.0909-0.3674 0.0000 (  3928 PWs)   bands (ev):

   -26.5613 -26.5454 -19.2295 -16.1586 -11.8505 -10.7168 -10.0170  -8.8345
    -8.1831  -7.5316  -6.8270  -5.8191  -4.9514  -4.4144  -3.7285   3.3996
     4.6695   6.0694   7.2148

     occupation numbers 
     1.0000   1.0000   1.0000   1.0000   1.0000   1.0000   1.0000   1.0000
     1.0000   1.0000   1.0000   1.0000   1.0000   1.0000   1.0000   0.0000
     0.0000   0.0000   0.0000

          k = 0.0909-0.2624 0.0000 (  3907 PWs)   bands (ev):

   -26.8345 -26.8073 -20.2528 -17.0146 -11.4691  -9.5417  -9.0327  -8.1534
    -7.4938  -6.9412  -6.2051  -4.9696  -4.5032  -4.0190  -3.3454   3.4245
     4.3295   6.1045   6.5597

     occupation numbers 
     1.0000   1.0000   1.0000   1.0000   1.0000   1.0000   1.0000   1.0000
     1.0000   1.0000   1.0000   1.0000   1.0000   1.0000   1.0000   0.0000
     0.0000   0.0000   0.0000

          k = 0.0909-0.1575 0.0000 (  3905 PWs)   bands (ev):

   -27.0744 -27.0366 -20.9431 -17.5972 -11.8031  -9.3359  -7.5283  -6.9614
    -6.6541  -6.2675  -5.7975  -4.1873  -4.0537  -3.2507  -2.7565   2.9073
     4.2547   5.4273   5.8863

     occupation numbers 
     1.0000   1.0000   1.0000   1.0000   1.0000   1.0000   1.0000   1.0000
     1.0000   1.0000   1.0000   1.0000   1.0000   1.0000   1.0000   0.0000
     0.0000   0.0000   0.0000

          k = 0.1818-0.1050-0.0000 (  3897 PWs)   bands (ev):

   -27.0101 -26.9752 -20.7701 -17.4510 -11.7086  -9.3486  -8.1069  -7.4289
    -6.6069  -6.3139  -6.0083  -4.4961  -3.8736  -3.8570  -2.7061   2.8593
     4.0427   5.7590   6.1852

     occupation numbers 
     1.0000   1.0000   1.0000   1.0000   1.0000   1.0000   1.0000   1.0000
     1.0000   1.0000   1.0000   1.0000   1.0000   1.0000   1.0000   0.0000
     0.0000   0.0000   0.0000

          k = 0.1818-0.0000-0.0000 (  3905 PWs)   bands (ev):

   -27.0744 -27.0366 -20.9431 -17.5972 -11.8031  -9.3359  -7.5283  -6.9614
    -6.6541  -6.2675  -5.7976  -4.1873  -4.0537  -3.2507  -2.7565   2.9073
     4.2546   5.4273   5.8864

     occupation numbers 
     1.0000   1.0000   1.0000   1.0000   1.0000   1.0000   1.0000   1.0000
     1.0000   1.0000   1.0000   1.0000   1.0000   1.0000   1.0000   0.0000
     0.0000   0.0000   0.0000

          k = 0.1818 0.1050-0.0000 (  3897 PWs)   bands (ev):

   -27.0101 -26.9752 -20.7701 -17.4510 -11.7086  -9.3486  -8.1069  -7.4289
    -6.6069  -6.3139  -6.0083  -4.4961  -3.8736  -3.8570  -2.7061   2.8592
     4.0427   5.7590   6.1853

     occupation numbers 
     1.0000   1.0000   1.0000   1.0000   1.0000   1.0000   1.0000   1.0000
     1.0000   1.0000   1.0000   1.0000   1.0000   1.0000   1.0000   0.0000
     0.0000   0.0000   0.0000

          k = 0.1818 0.2099-0.0000 (  3907 PWs)   bands (ev):

   -26.8345 -26.8073 -20.2528 -17.0146 -11.4691  -9.5417  -9.0327  -8.1534
    -7.4938  -6.9412  -6.2051  -4.9696  -4.5032  -4.0190  -3.3454   3.4245
     4.3294   6.1045   6.5598

     occupation numbers 
     1.0000   1.0000   1.0000   1.0000   1.0000   1.0000   1.0000   1.0000
     1.0000   1.0000   1.0000   1.0000   1.0000   1.0000   1.0000   0.0000
     0.0000   0.0000   0.0000

          k = 0.1818 0.3149-0.0000 (  3907 PWs)   bands (ev):

   -26.5969 -26.5793 -19.3974 -16.2965 -11.4103 -10.1906 -10.0180  -8.6465
    -8.5434  -7.9923  -6.6672  -5.7327  -4.7287  -4.3724  -4.1652   4.5018
     4.5426   6.6307   7.6166

     occupation numbers 
     1.0000   1.0000   1.0000   1.0000   1.0000   1.0000   1.0000   1.0000
     1.0000   1.0000   1.0000   1.0000   1.0000   1.0000   1.0000   0.0000
     0.0000   0.0000   0.0000

          k = 0.1818 0.4199-0.0000 (  3922 PWs)   bands (ev):

   -26.3704 -26.3614 -18.2288 -15.3266 -12.6214 -11.3362  -9.9844  -9.5839
    -9.0740  -8.3658  -7.3391  -6.2296  -5.2439  -4.6828  -4.4595   4.4265
     5.3964   6.8913   7.4527

     occupation numbers 
     1.0000   1.0000   1.0000   1.0000   1.0000   1.0000   1.0000   1.0000
     1.0000   1.0000   1.0000   1.0000   1.0000   1.0000   1.0000   0.0000
     0.0000   0.0000   0.0000

          k = 0.1818-0.6298 0.0000 (  3920 PWs)   bands (ev):

   -26.2314 -26.2282 -16.8935 -14.6401 -13.8235 -12.5619 -10.2832  -9.6445
    -9.2601  -8.3947  -7.8780  -6.4466  -5.6572  -4.7504  -4.6187   4.4086
     5.5196   7.0171   7.2750

     occupation numbers 
     1.0000   1.0000   1.0000   1.0000   1.0000   1.0000   1.0000   1.0000
     1.0000   1.0000   1.0000   1.0000   1.0000   1.0000   1.0000   0.0000
     0.0000   0.0000   0.0000

          k = 0.1818-0.5249 0.0000 (  3920 PWs)   bands (ev):

   -26.2314 -26.2282 -16.8935 -14.6401 -13.8235 -12.5619 -10.2832  -9.6445
    -9.2601  -8.3947  -7.8780  -6.4466  -5.6572  -4.7504  -4.6187   4.4086
     5.5196   7.0171   7.2749

     occupation numbers 
     1.0000   1.0000   1.0000   1.0000   1.0000   1.0000   1.0000   1.0000
     1.0000   1.0000   1.0000   1.0000   1.0000   1.0000   1.0000   0.0000
     0.0000   0.0000   0.0000

          k = 0.1818-0.4199 0.0000 (  3922 PWs)   bands (ev):

   -26.3704 -26.3614 -18.2288 -15.3266 -12.6214 -11.3363  -9.9844  -9.5839
    -9.0740  -8.3658  -7.3391  -6.2296  -5.2439  -4.6828  -4.4595   4.4266
     5.3964   6.8913   7.4526

     occupation numbers 
     1.0000   1.0000   1.0000   1.0000   1.0000   1.0000   1.0000   1.0000
     1.0000   1.0000   1.0000   1.0000   1.0000   1.0000   1.0000   0.0000
     0.0000   0.0000   0.0000

          k = 0.1818-0.3149 0.0000 (  3907 PWs)   bands (ev):

   -26.5969 -26.5793 -19.3974 -16.2966 -11.4103 -10.1907 -10.0180  -8.6465
    -8.5434  -7.9923  -6.6672  -5.7327  -4.7287  -4.3724  -4.1652   4.5018
     4.5427   6.6307   7.6165

     occupation numbers 
     1.0000   1.0000   1.0000   1.0000   1.0000   1.0000   1.0000   1.0000
     1.0000   1.0000   1.0000   1.0000   1.0000   1.0000   1.0000   0.0000
     0.0000   0.0000   0.0000

          k = 0.1818-0.2099-0.0000 (  3907 PWs)   bands (ev):

   -26.8345 -26.8073 -20.2528 -17.0146 -11.4691  -9.5417  -9.0327  -8.1534
    -7.4938  -6.9412  -6.2051  -4.9696  -4.5032  -4.0190  -3.3454   3.4245
     4.3295   6.1045   6.5598

     occupation numbers 
     1.0000   1.0000   1.0000   1.0000   1.0000   1.0000   1.0000   1.0000
     1.0000   1.0000   1.0000   1.0000   1.0000   1.0000   1.0000   0.0000
     0.0000   0.0000   0.0000

          k = 0.2727-0.1575-0.0000 (  3917 PWs)   bands (ev):

   -26.7335 -26.7107 -19.9101 -16.7274 -11.4320 -10.2892  -9.4511  -8.6350
    -7.2892  -7.0049  -6.4634  -5.2935  -4.7461  -4.1897  -3.1817   2.7991
     4.2439   5.7576   7.3878

     occupation numbers 
     1.0000   1.0000   1.0000   1.0000   1.0000   1.0000   1.0000   1.0000
     1.0000   1.0000   1.0000   1.0000   1.0000   1.0000   1.0000   0.0000
     0.0000   0.0000   0.0000

          k = 0.2727-0.0525-0.0000 (  3907 PWs)   bands (ev):

   -26.8345 -26.8073 -20.2528 -17.0146 -11.4691  -9.5417  -9.0327  -8.1534
    -7.4938  -6.9412  -6.2052  -4.9696  -4.5032  -4.0190  -3.3454   3.4245
     4.3294   6.1045   6.5597

     occupation numbers 
     1.0000   1.0000   1.0000   1.0000   1.0000   1.0000   1.0000   1.0000
     1.0000   1.0000   1.0000   1.0000   1.0000   1.0000   1.0000   0.0000
     0.0000   0.0000   0.0000

          k = 0.2727 0.0525-0.0000 (  3907 PWs)   bands (ev):

   -26.8345 -26.8073 -20.2528 -17.0146 -11.4691  -9.5417  -9.0327  -8.1534
    -7.4938  -6.9412  -6.2052  -4.9696  -4.5032  -4.0190  -3.3454   3.4245
     4.3294   6.1045   6.5597

     occupation numbers 
     1.0000   1.0000   1.0000   1.0000   1.0000   1.0000   1.0000   1.0000
     1.0000   1.0000   1.0000   1.0000   1.0000   1.0000   1.0000   0.0000
     0.0000   0.0000   0.0000

          k = 0.2727 0.1575-0.0000 (  3917 PWs)   bands (ev):

   -26.7335 -26.7107 -19.9101 -16.7274 -11.4320 -10.2892  -9.4511  -8.6350
    -7.2892  -7.0049  -6.4634  -5.2935  -4.7461  -4.1897  -3.1817   2.7991
     4.2439   5.7576   7.3878

     occupation numbers 
     1.0000   1.0000   1.0000   1.0000   1.0000   1.0000   1.0000   1.0000
     1.0000   1.0000   1.0000   1.0000   1.0000   1.0000   1.0000   0.0000
     0.0000   0.0000   0.0000

          k = 0.2727 0.2624-0.0000 (  3928 PWs)   bands (ev):

   -26.5613 -26.5454 -19.2295 -16.1586 -11.8505 -10.7168 -10.0170  -8.8344
    -8.1831  -7.5316  -6.8271  -5.8191  -4.9514  -4.4144  -3.7285   3.3996
     4.6695   6.0694   7.2145

     occupation numbers 
     1.0000   1.0000   1.0000   1.0000   1.0000   1.0000   1.0000   1.0000
     1.0000   1.0000   1.0000   1.0000   1.0000   1.0000   1.0000   0.0000
     0.0000   0.0000   0.0000

          k = 0.2727 0.3674-0.0000 (  3922 PWs)   bands (ev):

   -26.3704 -26.3614 -18.2288 -15.3266 -12.6214 -11.3362  -9.9844  -9.5839
    -9.0740  -8.3658  -7.3391  -6.2296  -5.2439  -4.6828  -4.4595   4.4265
     5.3964   6.8913   7.4528

     occupation numbers 
     1.0000   1.0000   1.0000   1.0000   1.0000   1.0000   1.0000   1.0000
     1.0000   1.0000   1.0000   1.0000   1.0000   1.0000   1.0000   0.0000
     0.0000   0.0000   0.0000

          k = 0.2727-0.6823 0.0000 (  3931 PWs)   bands (ev):

   -26.2221 -26.2182 -16.9793 -14.3109 -13.4752 -12.3978 -10.4576 -10.3259
    -9.3754  -8.5429  -7.9289  -6.3215  -5.5325  -5.3099  -4.6224   4.6838
     5.8482   7.1023   9.0960

     occupation numbers 
     1.0000   1.0000   1.0000   1.0000   1.0000   1.0000   1.0000   1.0000
     1.0000   1.0000   1.0000   1.0000   1.0000   1.0000   1.0000   0.0000
     0.0000   0.0000   0.0000

          k = 0.2727-0.5774 0.0000 (  3905 PWs)   bands (ev):

   -26.1657 -26.1647 -16.0406 -14.3851 -13.4252 -13.0220 -11.1522 -10.5737
    -8.9534  -8.6509  -8.3094  -6.1559  -5.8866  -5.4823  -4.6621   4.8227
     5.5336   8.0887   8.3887

     occupation numbers 
     1.0000   1.0000   1.0000   1.0000   1.0000   1.0000   1.0000   1.0000
     1.0000   1.0000   1.0000   1.0000   1.0000   1.0000   1.0000   0.0000
     0.0000   0.0000   0.0000

          k = 0.2727-0.4724 0.0000 (  3931 PWs)   bands (ev):

   -26.2221 -26.2182 -16.9793 -14.3109 -13.4752 -12.3978 -10.4576 -10.3259
    -9.3754  -8.5429  -7.9289  -6.3215  -5.5325  -5.3099  -4.6224   4.6839
     5.8481   7.1023   9.0959

     occupation numbers 
     1.0000   1.0000   1.0000   1.0000   1.0000   1.0000   1.0000   1.0000
     1.0000   1.0000   1.0000   1.0000   1.0000   1.0000   1.0000   0.0000
     0.0000   0.0000   0.0000

          k = 0.2727-0.3674-0.0000 (  3922 PWs)   bands (ev):

   -26.3704 -26.3614 -18.2288 -15.3266 -12.6214 -11.3363  -9.9844  -9.5839
    -9.0740  -8.3658  -7.3391  -6.2296  -5.2439  -4.6828  -4.4595   4.4266
     5.3964   6.8913   7.4526

     occupation numbers 
     1.0000   1.0000   1.0000   1.0000   1.0000   1.0000   1.0000   1.0000
     1.0000   1.0000   1.0000   1.0000   1.0000   1.0000   1.0000   0.0000
     0.0000   0.0000   0.0000

          k = 0.2727-0.2624-0.0000 (  3928 PWs)   bands (ev):

   -26.5613 -26.5454 -19.2295 -16.1586 -11.8505 -10.7168 -10.0170  -8.8344
    -8.1831  -7.5316  -6.8270  -5.8191  -4.9514  -4.4144  -3.7285   3.3996
     4.6695   6.0694   7.2150

     occupation numbers 
     1.0000   1.0000   1.0000   1.0000   1.0000   1.0000   1.0000   1.0000
     1.0000   1.0000   1.0000   1.0000   1.0000   1.0000   1.0000   0.0000
     0.0000   0.0000   0.0000

          k = 0.3636-0.2099-0.0000 (  3939 PWs)   bands (ev):

   -26.4664 -26.4545 -18.7305 -15.7509 -12.8540 -11.2130 -10.2517  -8.9499
    -7.8483  -7.5605  -6.8717  -6.2221  -5.0564  -4.4234  -3.5201   2.6486
     4.3854   5.3009   7.2491

     occupation numbers 
     1.0000   1.0000   1.0000   1.0000   1.0000   1.0000   1.0000   1.0000
     1.0000   1.0000   1.0000   1.0000   1.0000   1.0000   1.0000   0.0000
     0.0000   0.0000   0.0000

          k = 0.3636-0.1050-0.0000 (  3928 PWs)   bands (ev):

   -26.5613 -26.5454 -19.2295 -16.1586 -11.8505 -10.7168 -10.0170  -8.8345
    -8.1831  -7.5316  -6.8271  -5.8191  -4.9514  -4.4144  -3.7285   3.3996
     4.6695   6.0694   7.2148

     occupation numbers 
     1.0000   1.0000   1.0000   1.0000   1.0000   1.0000   1.0000   1.0000
     1.0000   1.0000   1.0000   1.0000   1.0000   1.0000   1.0000   0.0000
     0.0000   0.0000   0.0000

          k = 0.3636-0.0000-0.0000 (  3907 PWs)   bands (ev):

   -26.5969 -26.5793 -19.3974 -16.2965 -11.4103 -10.1906 -10.0180  -8.6465
    -8.5434  -7.9923  -6.6672  -5.7327  -4.7287  -4.3724  -4.1652   4.5018
     4.5426   6.6307   7.6167

     occupation numbers 
     1.0000   1.0000   1.0000   1.0000   1.0000   1.0000   1.0000   1.0000
     1.0000   1.0000   1.0000   1.0000   1.0000   1.0000   1.0000   0.0000
     0.0000   0.0000   0.0000

          k = 0.3636 0.1050-0.0000 (  3928 PWs)   bands (ev):

   -26.5613 -26.5454 -19.2295 -16.1586 -11.8505 -10.7168 -10.0170  -8.8344
    -8.1831  -7.5316  -6.8271  -5.8191  -4.9514  -4.4144  -3.7285   3.3996
     4.6695   6.0694   7.2145

     occupation numbers 
     1.0000   1.0000   1.0000   1.0000   1.0000   1.0000   1.0000   1.0000
     1.0000   1.0000   1.0000   1.0000   1.0000   1.0000   1.0000   0.0000
     0.0000   0.0000   0.0000

          k = 0.3636 0.2099-0.0000 (  3939 PWs)   bands (ev):

   -26.4664 -26.4545 -18.7305 -15.7509 -12.8540 -11.2130 -10.2516  -8.9499
    -7.8483  -7.5606  -6.8717  -6.2221  -5.0564  -4.4234  -3.5201   2.6486
     4.3854   5.3010   7.2492

     occupation numbers 
     1.0000   1.0000   1.0000   1.0000   1.0000   1.0000   1.0000   1.0000
     1.0000   1.0000   1.0000   1.0000   1.0000   1.0000   1.0000   0.0000
     0.0000   0.0000   0.0000

          k = 0.3636 0.3149-0.0000 (  3937 PWs)   bands (ev):

   -26.3432 -26.3360 -17.9225 -15.1171 -13.7016 -11.9200 -10.0288  -9.1419
    -8.5893  -7.8010  -7.3697  -6.4564  -5.2835  -4.5626  -3.9637   3.4296
     4.5580   5.6852   7.5301

     occupation numbers 
     1.0000   1.0000   1.0000   1.0000   1.0000   1.0000   1.0000   1.0000
     1.0000   1.0000   1.0000   1.0000   1.0000   1.0000   1.0000   0.0000
     0.0000   0.0000   0.0000

          k = 0.3636-0.7348 0.0000 (  3920 PWs)   bands (ev):

   -26.2314 -26.2282 -16.8935 -14.6401 -13.8235 -12.5619 -10.2832  -9.6445
    -9.2601  -8.3947  -7.8780  -6.4466  -5.6572  -4.7504  -4.6187   4.4085
     5.5196   7.0173   7.2750

     occupation numbers 
     1.0000   1.0000   1.0000   1.0000   1.0000   1.0000   1.0000   1.0000
     1.0000   1.0000   1.0000   1.0000   1.0000   1.0000   1.0000   0.0000
     0.0000   0.0000   0.0000

          k = 0.3636-0.6298 0.0000 (  3905 PWs)   bands (ev):

   -26.1657 -26.1647 -16.0406 -14.3852 -13.4252 -13.0220 -11.1522 -10.5737
    -8.9534  -8.6509  -8.3095  -6.1559  -5.8866  -5.4823  -4.6621   4.8226
     5.5337   8.0887   8.3887

     occupation numbers 
     1.0000   1.0000   1.0000   1.0000   1.0000   1.0000   1.0000   1.0000
     1.0000   1.0000   1.0000   1.0000   1.0000   1.0000   1.0000   0.0000
     0.0000   0.0000   0.0000

          k = 0.3636-0.5249-0.0000 (  3905 PWs)   bands (ev):

   -26.1657 -26.1647 -16.0406 -14.3851 -13.4252 -13.0220 -11.1522 -10.5737
    -8.9534  -8.6509  -8.3095  -6.1559  -5.8866  -5.4823  -4.6621   4.8227
     5.5336   8.0887   8.3888

     occupation numbers 
     1.0000   1.0000   1.0000   1.0000   1.0000   1.0000   1.0000   1.0000
     1.0000   1.0000   1.0000   1.0000   1.0000   1.0000   1.0000   0.0000
     0.0000   0.0000   0.0000

          k = 0.3636-0.4199-0.0000 (  3920 PWs)   bands (ev):

   -26.2314 -26.2282 -16.8935 -14.6401 -13.8235 -12.5619 -10.2832  -9.6445
    -9.2601  -8.3947  -7.8780  -6.4466  -5.6572  -4.7504  -4.6187   4.4086
     5.5196   7.0171   7.2750

     occupation numbers 
     1.0000   1.0000   1.0000   1.0000   1.0000   1.0000   1.0000   1.0000
     1.0000   1.0000   1.0000   1.0000   1.0000   1.0000   1.0000   0.0000
     0.0000   0.0000   0.0000

          k = 0.3636-0.3149-0.0000 (  3937 PWs)   bands (ev):

   -26.3432 -26.3360 -17.9225 -15.1171 -13.7016 -11.9200 -10.0288  -9.1419
    -8.5893  -7.8010  -7.3697  -6.4564  -5.2835  -4.5626  -3.9637   3.4296
     4.5580   5.6853   7.5301

     occupation numbers 
     1.0000   1.0000   1.0000   1.0000   1.0000   1.0000   1.0000   1.0000
     1.0000   1.0000   1.0000   1.0000   1.0000   1.0000   1.0000   0.0000
     0.0000   0.0000   0.0000

          k = 0.4545-0.2624-0.0000 (  3951 PWs)   bands (ev):

   -26.3004 -26.2961 -17.3675 -15.0859 -14.2075 -12.7206  -9.9040  -9.2125
    -8.1540  -7.7864  -7.1071  -6.7441  -5.2317  -4.5451  -3.6916   2.6971
     4.0489   4.9865   7.6487

     occupation numbers 
     1.0000   1.0000   1.0000   1.0000   1.0000   1.0000   1.0000   1.0000
     1.0000   1.0000   1.0000   1.0000   1.0000   1.0000   1.0000   0.0000
     0.0000   0.0000   0.0000

          k = 0.4545-0.1575-0.0000 (  3937 PWs)   bands (ev):

   -26.3432 -26.3360 -17.9225 -15.1171 -13.7016 -11.9200 -10.0288  -9.1419
    -8.5893  -7.8010  -7.3697  -6.4564  -5.2835  -4.5626  -3.9637   3.4296
     4.5580   5.6854   7.5302

     occupation numbers 
     1.0000   1.0000   1.0000   1.0000   1.0000   1.0000   1.0000   1.0000
     1.0000   1.0000   1.0000   1.0000   1.0000   1.0000   1.0000   0.0000
     0.0000   0.0000   0.0000

          k = 0.4545-0.0525-0.0000 (  3922 PWs)   bands (ev):

   -26.3704 -26.3614 -18.2288 -15.3266 -12.6214 -11.3362  -9.9844  -9.5839
    -9.0740  -8.3658  -7.3391  -6.2296  -5.2439  -4.6828  -4.4595   4.4265
     5.3964   6.8913   7.4526

     occupation numbers 
     1.0000   1.0000   1.0000   1.0000   1.0000   1.0000   1.0000   1.0000
     1.0000   1.0000   1.0000   1.0000   1.0000   1.0000   1.0000   0.0000
     0.0000   0.0000   0.0000

          k = 0.4545 0.0525-0.0000 (  3922 PWs)   bands (ev):

   -26.3704 -26.3614 -18.2288 -15.3266 -12.6214 -11.3362  -9.9844  -9.5839
    -9.0740  -8.3658  -7.3391  -6.2296  -5.2439  -4.6828  -4.4595   4.4265
     5.3964   6.8913   7.4527

     occupation numbers 
     1.0000   1.0000   1.0000   1.0000   1.0000   1.0000   1.0000   1.0000
     1.0000   1.0000   1.0000   1.0000   1.0000   1.0000   1.0000   0.0000
     0.0000   0.0000   0.0000

          k = 0.4545 0.1575-0.0000 (  3937 PWs)   bands (ev):

   -26.3432 -26.3360 -17.9225 -15.1171 -13.7016 -11.9200 -10.0288  -9.1419
    -8.5893  -7.8010  -7.3697  -6.4564  -5.2835  -4.5626  -3.9637   3.4296
     4.5579   5.6853   7.5300

     occupation numbers 
     1.0000   1.0000   1.0000   1.0000   1.0000   1.0000   1.0000   1.0000
     1.0000   1.0000   1.0000   1.0000   1.0000   1.0000   1.0000   0.0000
     0.0000   0.0000   0.0000

          k = 0.4545 0.2624-0.0001 (  3951 PWs)   bands (ev):

   -26.3004 -26.2961 -17.3675 -15.0859 -14.2074 -12.7206  -9.9040  -9.2125
    -8.1540  -7.7864  -7.1071  -6.7440  -5.2316  -4.5451  -3.6916   2.6971
     4.0488   4.9866   7.6488

     occupation numbers 
     1.0000   1.0000   1.0000   1.0000   1.0000   1.0000   1.0000   1.0000
     1.0000   1.0000   1.0000   1.0000   1.0000   1.0000   1.0000   0.0000
     0.0000   0.0000   0.0000

          k = 0.4545-0.7873 0.0000 (  3936 PWs)   bands (ev):

   -26.2589 -26.2564 -16.8694 -15.2835 -13.8053 -13.1319  -9.7873  -9.3108
    -8.7563  -7.8252  -7.6001  -6.6916  -5.4019  -4.6106  -4.0457   3.6368
     4.1093   5.6623   7.7154

     occupation numbers 
     1.0000   1.0000   1.0000   1.0000   1.0000   1.0000   1.0000   1.0000
     1.0000   1.0000   1.0000   1.0000   1.0000   1.0000   1.0000   0.0000
     0.0000   0.0000   0.0000

          k = 0.4545-0.6823-0.0000 (  3920 PWs)   bands (ev):

   -26.2314 -26.2282 -16.8935 -14.6401 -13.8235 -12.5619 -10.2832  -9.6445
    -9.2600  -8.3947  -7.8780  -6.4466  -5.6572  -4.7504  -4.6187   4.4085
     5.5196   7.0172   7.2749

     occupation numbers 
     1.0000   1.0000   1.0000   1.0000   1.0000   1.0000   1.0000   1.0000
     1.0000   1.0000   1.0000   1.0000   1.0000   1.0000   1.0000   0.0000
     0.0000   0.0000   0.0000

          k = 0.4545-0.5774-0.0000 (  3931 PWs)   bands (ev):

   -26.2221 -26.2182 -16.9793 -14.3109 -13.4752 -12.3978 -10.4576 -10.3259
    -9.3754  -8.5429  -7.9290  -6.3215  -5.5325  -5.3099  -4.6224   4.6838
     5.8482   7.1023   9.0958

     occupation numbers 
     1.0000   1.0000   1.0000   1.0000   1.0000   1.0000   1.0000   1.0000
     1.0000   1.0000   1.0000   1.0000   1.0000   1.0000   1.0000   0.0000
     0.0000   0.0000   0.0000

          k = 0.4545-0.4724-0.0000 (  3920 PWs)   bands (ev):

   -26.2314 -26.2282 -16.8935 -14.6401 -13.8235 -12.5619 -10.2832  -9.6445
    -9.2601  -8.3947  -7.8780  -6.4466  -5.6572  -4.7504  -4.6187   4.4086
     5.5197   7.0171   7.2749

     occupation numbers 
     1.0000   1.0000   1.0000   1.0000   1.0000   1.0000   1.0000   1.0000
     1.0000   1.0000   1.0000   1.0000   1.0000   1.0000   1.0000   0.0000
     0.0000   0.0000   0.0000

          k = 0.4545-0.3674-0.0000 (  3936 PWs)   bands (ev):

   -26.2589 -26.2564 -16.8694 -15.2835 -13.8054 -13.1319  -9.7874  -9.3108
    -8.7563  -7.8252  -7.6001  -6.6916  -5.4019  -4.6106  -4.0457   3.6368
     4.1093   5.6623   7.7156

     occupation numbers 
     1.0000   1.0000   1.0000   1.0000   1.0000   1.0000   1.0000   1.0000
     1.0000   1.0000   1.0000   1.0000   1.0000   1.0000   1.0000   0.0000
     0.0000   0.0000   0.0000

     the Fermi energy is     0.2726 ev

!    total energy              =    -189.94063916 Ry
     Harris-Foulkes estimate   =    -189.94063917 Ry
     estimated scf accuracy    <          9.0E-11 Ry

     total all-electron energy =      -701.912754 Ry

     The total energy is the sum of the following terms:

     one-electron contribution =   -1506.89681437 Ry
     hartree contribution      =     763.09619978 Ry
     xc contribution           =     -37.16249455 Ry
     ewald contribution        =     636.01910727 Ry
     one-center paw contrib.   =     -44.99663729 Ry
      -> PAW hartree energy AE =     117.52067329 Ry
      -> PAW hartree energy PS =    -117.44097883 Ry
      -> PAW xc energy AE      =     -80.45712250 Ry
      -> PAW xc energy PS      =      35.38079075 Ry
      -> total E_H with PAW    =     763.17589423 Ry
      -> total E_XC with PAW   =     -82.23882629 Ry
     smearing contrib. (-TS)   =      -0.00000000 Ry

     convergence has been achieved in  12 iterations

     negative rho (up, down):  6.398E-04 0.000E+00

     Forces acting on atoms (cartesian axes, Ry/au):

     atom    1 type  1   force =    -0.00000127   -0.00000131   -0.00921842
     atom    2 type  1   force =    -0.00000364   -0.00000263    0.00042224
     atom    3 type  1   force =     0.00000069    0.00000095    0.00921861
     atom    4 type  1   force =     0.00000254    0.00000203   -0.00047395
     atom    5 type  2   force =     0.00000266    0.00000198    0.01753326
     atom    6 type  2   force =    -0.00000098   -0.00000103   -0.01748174
     The non-local contrib.  to forces
     atom    1 type  1   force =    -0.00000500   -0.00000428   -0.40588883
     atom    2 type  1   force =    -0.00000555   -0.00000418    0.08413761
     atom    3 type  1   force =     0.00000304    0.00000313    0.40590503
     atom    4 type  1   force =     0.00000304    0.00000277   -0.08415176
     atom    5 type  2   force =     0.00004188    0.00003096    3.17143601
     atom    6 type  2   force =    -0.00001636   -0.00001658   -3.17142159
     The ionic contribution  to forces
     atom    1 type  1   force =     0.00006601    0.00004732  -13.36767802
     atom    2 type  1   force =    -0.00000457    0.00000014   -9.40120984
     atom    3 type  1   force =    -0.00002607   -0.00002490   13.36783775
     atom    4 type  1   force =    -0.00000452   -0.00000517    9.40118888
     atom    5 type  2   force =    -0.00005247   -0.00003943  -66.85280486
     atom    6 type  2   force =     0.00002161    0.00002204   66.85266609
     The local contribution  to forces
     atom    1 type  1   force =    -0.00006207   -0.00004424   13.75591907
     atom    2 type  1   force =     0.00000657    0.00000147    9.31877562
     atom    3 type  1   force =     0.00002355    0.00002263  -13.75608216
     atom    4 type  1   force =     0.00000373    0.00000426   -9.31871848
     atom    5 type  2   force =     0.00001342    0.00001066   63.70909423
     atom    6 type  2   force =    -0.00000607   -0.00000651  -63.70899037
     The core correction contribution to forces
     atom    1 type  1   force =    -0.00000010   -0.00000005    0.00839119
     atom    2 type  1   force =    -0.00000001   -0.00000000   -0.00131275
     atom    3 type  1   force =     0.00000024    0.00000013   -0.00847225
     atom    4 type  1   force =     0.00000039    0.00000022    0.00117038
     atom    5 type  2   force =    -0.00000012   -0.00000009   -0.01024738
     atom    6 type  2   force =     0.00000001    0.00000003    0.01024630
     The Hubbard contrib.    to forces
     atom    1 type  1   force =     0.00000000    0.00000000    0.00000000
     atom    2 type  1   force =     0.00000000    0.00000000    0.00000000
     atom    3 type  1   force =     0.00000000    0.00000000    0.00000000
     atom    4 type  1   force =     0.00000000    0.00000000    0.00000000
     atom    5 type  2   force =     0.00000000    0.00000000    0.00000000
     atom    6 type  2   force =     0.00000000    0.00000000    0.00000000
     The SCF correction term to forces
     atom    1 type  1   force =    -0.00000004   -0.00000002    0.00000287
     atom    2 type  1   force =     0.00000001   -0.00000001   -0.00000371
     atom    3 type  1   force =     0.00000002    0.00000001   -0.00000508
     atom    4 type  1   force =    -0.00000001   -0.00000001    0.00000172
     atom    5 type  2   force =     0.00000002   -0.00000008    0.00001995
     atom    6 type  2   force =    -0.00000008    0.00000004   -0.00001747

     Total force =     0.027989     Total SCF correction =     0.000027


     Computing stress (Cartesian axis) and pressure


     negative rho (up, down):  6.398E-04 0.000E+00
          total   stress  (Ry/bohr**3)                   (kbar)     P=  -23.29
  -0.00014821  -0.00000000  -0.00000001        -21.80     -0.00     -0.00
  -0.00000000  -0.00014821  -0.00000001         -0.00    -21.80     -0.00
  -0.00000001  -0.00000001  -0.00017847         -0.00     -0.00    -26.25

     kinetic stress (kbar)   9163.81     -0.00     -0.01
                               -0.00   9163.81     -0.01
                               -0.01     -0.01   8324.21

     local   stress (kbar)-286809.72      0.01     -0.02
                                0.01-286809.74     -0.02
                               -0.02     -0.02 276372.42

     nonloc. stress (kbar)   3143.04     -0.00     -0.00
                               -0.00   3143.04     -0.00
                               -0.00     -0.00   2879.63

     hartree stress (kbar) 141385.31     -0.00      0.01
                               -0.00 141385.31      0.00
                                0.01      0.00-136841.20

     exc-cor stress (kbar)  -1130.23     -0.00      0.00
                               -0.00  -1130.23      0.00
                                0.00      0.00  -1126.90

     corecor stress (kbar)   -939.38      0.00      0.00
                                0.00   -939.38      0.00
                                0.00      0.00   -931.71

     ewald   stress (kbar) 135165.36     -0.01      0.03
                               -0.01 135165.37      0.02
                                0.03      0.02-148702.69

     hubbard stress (kbar)      0.00      0.00      0.00
                                0.00      0.00      0.00
                                0.00      0.00      0.00

     london  stress (kbar)      0.00      0.00      0.00
                                0.00      0.00      0.00
                                0.00      0.00      0.00

     DFT-D3  stress (kbar)      0.00      0.00      0.00
                                0.00      0.00      0.00
                                0.00      0.00      0.00

     XDM     stress (kbar)      0.00      0.00      0.00
                                0.00      0.00      0.00
                                0.00      0.00      0.00

     dft-nl  stress (kbar)      0.00      0.00      0.00
                                0.00      0.00      0.00
                                0.00      0.00      0.00

     TS-vdW  stress (kbar)      0.00      0.00      0.00
                                0.00      0.00      0.00
                                0.00      0.00      0.00

     3D-RISM stress (kbar)      0.00      0.00      0.00
                                0.00      0.00      0.00
                                0.00      0.00      0.00



     Writing output data file pwscf.save\

     init_run     :     13.81s CPU      8.00s WALL (       1 calls)
     electrons    :    246.94s CPU    174.59s WALL (       1 calls)
     forces       :      7.25s CPU      1.56s WALL (       1 calls)
     stress       :     20.78s CPU      5.09s WALL (       1 calls)

     Called by init_run:
     wfcinit      :      4.52s CPU      3.00s WALL (       1 calls)
     wfcinit:atom :      0.19s CPU      0.10s WALL (      61 calls)
     wfcinit:wfcr :      3.70s CPU      2.31s WALL (      61 calls)
     potinit      :      4.34s CPU      0.66s WALL (       1 calls)
     hinit0       :      4.83s CPU      4.19s WALL (       1 calls)

     Called by electrons:
     c_bands      :    215.78s CPU    155.10s WALL (      12 calls)
     sum_band     :     23.84s CPU     15.29s WALL (      12 calls)
     v_of_rho     :      2.11s CPU      0.98s WALL (      13 calls)
     v_h          :      0.08s CPU      0.07s WALL (      13 calls)
     v_xc         :      2.23s CPU      1.04s WALL (      15 calls)
     newd         :      1.75s CPU      1.23s WALL (      13 calls)
     PAW_pot      :      3.80s CPU      1.98s WALL (      13 calls)
     mix_rho      :      0.25s CPU      0.22s WALL (      12 calls)

     Called by c_bands:
     init_us_2    :      3.28s CPU      1.20s WALL (    1647 calls)
     ccgdiagg     :    183.61s CPU    133.25s WALL (     732 calls)
     wfcrot       :     34.56s CPU     23.02s WALL (     732 calls)

     Called by sum_band:
     sum_band:bec :      0.14s CPU      0.42s WALL (     732 calls)
     addusdens    :      1.97s CPU      1.70s WALL (      12 calls)

     Called by *cgdiagg:
     h_psi        :    154.66s CPU    101.71s WALL (   38986 calls)
     s_psi        :     25.03s CPU     20.27s WALL (   77240 calls)
     cdiaghg      :      0.11s CPU      0.14s WALL (     732 calls)

     Called by h_psi:
     h_psi:pot    :    150.22s CPU     96.51s WALL (   38986 calls)
     h_psi:calbec :     19.30s CPU     11.94s WALL (   38986 calls)
     vloc_psi     :    116.23s CPU     75.09s WALL (   38986 calls)
     add_vuspsi   :     14.41s CPU      9.32s WALL (   38986 calls)
     hs_1psi      :    143.88s CPU     97.81s WALL (   38254 calls)
     s_1psi       :     25.91s CPU     22.23s WALL (   38254 calls)

     General routines
     calbec       :     33.31s CPU     22.04s WALL (   78277 calls)
     fft          :      0.17s CPU      0.14s WALL (     192 calls)
     ffts         :      0.06s CPU      0.02s WALL (      25 calls)
     fftw         :     85.94s CPU     51.97s WALL (  118842 calls)
     interpolate  :      0.00s CPU      0.05s WALL (      13 calls)

     Parallel routines

     PAW routines
     PAW_pot      :      3.80s CPU      1.98s WALL (      13 calls)

     PWSCF        :   4m49.95s CPU   3m11.80s WALL


   This run was terminated on:  17:18: 4  19Nov2024            

=------------------------------------------------------------------------------=
   JOB DONE.
=------------------------------------------------------------------------------=
