
     Program PWSCF v.6.4.1 starts on 19Nov2024 at 17:11:55 

     This program is part of the open-source Quantum ESPRESSO suite
     for quantum simulation of materials; please cite
         "P. Giannozzi et al., J. Phys.:Condens. Matter 21 395502 (2009);
         "P. Giannozzi et al., J. Phys.:Condens. Matter 29 465901 (2017);
          URL http://www.quantum-espresso.org", 
     in publications or presentations arising from this work. More details at
     http://www.quantum-espresso.org/quote

     Parallel version (MPI & OpenMP), running on      12 processor cores
     Number of MPI processes:                 1
     Threads/MPI process:                    12

     MPI processes distributed on     1 nodes
     Waiting for input...
     Reading input from standard input

     Current dimensions of program PWSCF are:
     Max number of different atomic species (ntypx) = 10
     Max number of k-points (npk) =  40000
     Max angular momentum in pseudopotentials (lmaxx) =  3
               file C.pbesol-n-kjpaw_psl.1.0.0.UPF: wavefunction(s)  2S 2P renormalized
               file F.pbesol-n-kjpaw_psl.1.0.0.UPF: wavefunction(s)  2S 2P renormalized

     Subspace diagonalization in iterative solution of the eigenvalue problem:
     a serial algorithm will be used


     G-vector sticks info
     --------------------
     sticks:   dense  smooth     PW     G-vecs:    dense   smooth      PW
     Sum         583     295     97                88889    31423    6227



     bravais-lattice index     =            0
     lattice parameter (alat)  =       4.8507  a.u.
     unit-cell volume          =     769.2439 (a.u.)^3
     number of atoms/cell      =            6
     number of atomic types    =            2
     number of electrons       =        30.00
     number of Kohn-Sham states=           19
     kinetic-energy cutoff     =      45.0000  Ry
     charge density cutoff     =     360.0000  Ry
     convergence threshold     =      1.2E-09
     mixing beta               =       0.4000
     number of iterations used =            8  plain     mixing
     Exchange-correlation      = SLA PW PSX PSC ( 1  4 10  8 0 0)

     celldm(1)=   4.850737  celldm(2)=   0.000000  celldm(3)=   0.000000
     celldm(4)=   0.000000  celldm(5)=   0.000000  celldm(6)=   0.000000

     crystal axes: (cart. coord. in units of alat)
               a(1) = (   1.000000   0.000000   0.000000 )  
               a(2) = (   0.500000   0.866025   0.000000 )  
               a(3) = (   0.000640   0.000376   7.782340 )  

     reciprocal axes: (cart. coord. in units 2 pi/alat)
               b(1) = (  1.000000 -0.577350 -0.000054 )  
               b(2) = (  0.000000  1.154701 -0.000056 )  
               b(3) = (  0.000000  0.000000  0.128496 )  


     PseudoPot. # 1 for C  read from file:
     .\C.pbesol-n-kjpaw_psl.1.0.0.UPF
     MD5 check sum: f9b2fe17d1f478429498b05d17159f9e
     Pseudo is Projector augmented-wave + core cor, Zval =  4.0
     Generated using "atomic" code by A. Dal Corso v.6.3
     Shape of augmentation charge: PSQ
     Using radial grid of 1073 points,  4 beta functions with: 
                l(1) =   0
                l(2) =   0
                l(3) =   1
                l(4) =   1
     Q(r) pseudized with 0 coefficients 


     PseudoPot. # 2 for F  read from file:
     .\F.pbesol-n-kjpaw_psl.1.0.0.UPF
     MD5 check sum: d939582bcd23f1ece12cfc4fab8d9d36
     Pseudo is Projector augmented-wave + core cor, Zval =  7.0
     Generated using "atomic" code by A. Dal Corso v.6.3
     Shape of augmentation charge: PSQ
     Using radial grid of 1105 points,  4 beta functions with: 
                l(1) =   0
                l(2) =   0
                l(3) =   1
                l(4) =   1
     Q(r) pseudized with 0 coefficients 


     atomic species   valence    mass     pseudopotential
        C              4.00    12.01070     C ( 1.00)
        F              7.00    18.99840     F ( 1.00)

     No symmetry found


                                    s                        frac. trans.

      isym =  1     identity                                     

 cryst.   s( 1) = (     1          0          0      )
                  (     0          1          0      )
                  (     0          0          1      )

 cart.    s( 1) = (  1.0000000  0.0000000  0.0000000 )
                  (  0.0000000  1.0000000  0.0000000 )
                  (  0.0000000  0.0000000  1.0000000 )


   Cartesian axes

     site n.     atom                  positions (alat units)
         1           C   tau(   1) = (   0.0003519   0.0002070   3.9178512  )
         2           C   tau(   2) = (   0.5003526   0.2888824   4.1138039  )
         3           C   tau(   3) = (   1.0003491   0.5775541   4.9151223  )
         4           C   tau(   4) = (   0.5003488   0.2888789   4.7191654  )
         5           F   tau(   5) = (   0.0003452   0.0002019   3.3809522  )
         6           F   tau(   6) = (   1.0003518   0.5775569   5.4520245  )

   Crystallographic axes

     site n.     atom                  positions (cryst. coord.)
         1           C   tau(   1) = (  0.0000192  0.0000206  0.5034284  )
         2           C   tau(   2) = (  0.3333424  0.3333434  0.5286075  )
         3           C   tau(   3) = (  0.6666304  0.6666281  0.6315738  )
         4           C   tau(   4) = (  0.3333076  0.3333056  0.6063941  )
         5           F   tau(   5) = (  0.0000446  0.0000447  0.4344390  )
         6           F   tau(   6) = (  0.6666024  0.6666014  0.7005636  )

     number of k points=    52  Marzari-Vanderbilt smearing, width (Ry)=  0.0200
                       cart. coord. in units 2pi/alat
        k(    1) = (   0.0000000   0.0000000   0.0000000), wk =   0.0200000
        k(    2) = (   0.0000000   0.1154701  -0.0000056), wk =   0.0400000
        k(    3) = (   0.0000000   0.2309401  -0.0000111), wk =   0.0400000
        k(    4) = (   0.0000000   0.3464102  -0.0000167), wk =   0.0400000
        k(    5) = (   0.0000000   0.4618803  -0.0000223), wk =   0.0400000
        k(    6) = (   0.0000000  -0.5773503   0.0000279), wk =   0.0200000
        k(    7) = (   0.1000000  -0.0577350  -0.0000054), wk =   0.0400000
        k(    8) = (   0.1000000   0.0577350  -0.0000110), wk =   0.0400000
        k(    9) = (   0.1000000   0.1732051  -0.0000166), wk =   0.0400000
        k(   10) = (   0.1000000   0.2886751  -0.0000222), wk =   0.0400000
        k(   11) = (   0.1000000   0.4041452  -0.0000277), wk =   0.0400000
        k(   12) = (   0.1000000  -0.6350854   0.0000224), wk =   0.0400000
        k(   13) = (   0.1000000  -0.5196153   0.0000169), wk =   0.0400000
        k(   14) = (   0.1000000  -0.4041452   0.0000113), wk =   0.0400000
        k(   15) = (   0.1000000  -0.2886752   0.0000057), wk =   0.0400000
        k(   16) = (   0.1000000  -0.1732051   0.0000001), wk =   0.0400000
        k(   17) = (   0.2000000  -0.1154701  -0.0000109), wk =   0.0400000
        k(   18) = (   0.2000000  -0.0000000  -0.0000165), wk =   0.0400000
        k(   19) = (   0.2000000   0.1154700  -0.0000220), wk =   0.0400000
        k(   20) = (   0.2000000   0.2309401  -0.0000276), wk =   0.0400000
        k(   21) = (   0.2000000   0.3464102  -0.0000332), wk =   0.0400000
        k(   22) = (   0.2000000  -0.6928204   0.0000170), wk =   0.0400000
        k(   23) = (   0.2000000  -0.5773503   0.0000114), wk =   0.0400000
        k(   24) = (   0.2000000  -0.4618803   0.0000058), wk =   0.0400000
        k(   25) = (   0.2000000  -0.3464102   0.0000003), wk =   0.0400000
        k(   26) = (   0.2000000  -0.2309402  -0.0000053), wk =   0.0400000
        k(   27) = (   0.3000000  -0.1732051  -0.0000163), wk =   0.0400000
        k(   28) = (   0.3000000  -0.0577351  -0.0000219), wk =   0.0400000
        k(   29) = (   0.3000000   0.0577350  -0.0000275), wk =   0.0400000
        k(   30) = (   0.3000000   0.1732051  -0.0000330), wk =   0.0400000
        k(   31) = (   0.3000000   0.2886751  -0.0000386), wk =   0.0400000
        k(   32) = (   0.3000000  -0.7505554   0.0000115), wk =   0.0400000
        k(   33) = (   0.3000000  -0.6350854   0.0000060), wk =   0.0400000
        k(   34) = (   0.3000000  -0.5196153   0.0000004), wk =   0.0400000
        k(   35) = (   0.3000000  -0.4041453  -0.0000052), wk =   0.0400000
        k(   36) = (   0.3000000  -0.2886752  -0.0000108), wk =   0.0400000
        k(   37) = (   0.4000000  -0.2309402  -0.0000218), wk =   0.0400000
        k(   38) = (   0.4000000  -0.1154701  -0.0000273), wk =   0.0400000
        k(   39) = (   0.4000000  -0.0000001  -0.0000329), wk =   0.0400000
        k(   40) = (   0.4000000   0.1154700  -0.0000385), wk =   0.0400000
        k(   41) = (   0.4000000   0.2309401  -0.0000441), wk =   0.0400000
        k(   42) = (   0.4000000  -0.8082905   0.0000061), wk =   0.0400000
        k(   43) = (   0.4000000  -0.6928204   0.0000005), wk =   0.0400000
        k(   44) = (   0.4000000  -0.5773504  -0.0000050), wk =   0.0400000
        k(   45) = (   0.4000000  -0.4618803  -0.0000106), wk =   0.0400000
        k(   46) = (   0.4000000  -0.3464102  -0.0000162), wk =   0.0400000
        k(   47) = (  -0.5000000   0.2886752   0.0000272), wk =   0.0200000
        k(   48) = (  -0.5000000   0.4041453   0.0000216), wk =   0.0400000
        k(   49) = (  -0.5000000   0.5196153   0.0000161), wk =   0.0400000
        k(   50) = (  -0.5000000   0.6350854   0.0000105), wk =   0.0400000
        k(   51) = (  -0.5000000   0.7505555   0.0000049), wk =   0.0400000
        k(   52) = (  -0.5000000  -0.2886751   0.0000551), wk =   0.0200000

                       cryst. coord.
        k(    1) = (   0.0000000   0.0000000   0.0000000), wk =   0.0200000
        k(    2) = (   0.0000000   0.1000000   0.0000000), wk =   0.0400000
        k(    3) = (   0.0000000   0.2000000   0.0000000), wk =   0.0400000
        k(    4) = (   0.0000000   0.3000000   0.0000000), wk =   0.0400000
        k(    5) = (   0.0000000   0.4000000   0.0000000), wk =   0.0400000
        k(    6) = (   0.0000000  -0.5000000  -0.0000000), wk =   0.0200000
        k(    7) = (   0.1000000   0.0000000   0.0000000), wk =   0.0400000
        k(    8) = (   0.1000000   0.1000000   0.0000000), wk =   0.0400000
        k(    9) = (   0.1000000   0.2000000   0.0000000), wk =   0.0400000
        k(   10) = (   0.1000000   0.3000000   0.0000000), wk =   0.0400000
        k(   11) = (   0.1000000   0.4000000   0.0000000), wk =   0.0400000
        k(   12) = (   0.1000000  -0.5000000   0.0000000), wk =   0.0400000
        k(   13) = (   0.1000000  -0.4000000   0.0000000), wk =   0.0400000
        k(   14) = (   0.1000000  -0.3000000   0.0000000), wk =   0.0400000
        k(   15) = (   0.1000000  -0.2000000   0.0000000), wk =   0.0400000
        k(   16) = (   0.1000000  -0.1000000   0.0000000), wk =   0.0400000
        k(   17) = (   0.2000000   0.0000000   0.0000000), wk =   0.0400000
        k(   18) = (   0.2000000   0.1000000   0.0000000), wk =   0.0400000
        k(   19) = (   0.2000000   0.2000000   0.0000000), wk =   0.0400000
        k(   20) = (   0.2000000   0.3000000   0.0000000), wk =   0.0400000
        k(   21) = (   0.2000000   0.4000000   0.0000000), wk =   0.0400000
        k(   22) = (   0.2000000  -0.5000000   0.0000000), wk =   0.0400000
        k(   23) = (   0.2000000  -0.4000000   0.0000000), wk =   0.0400000
        k(   24) = (   0.2000000  -0.3000000   0.0000000), wk =   0.0400000
        k(   25) = (   0.2000000  -0.2000000   0.0000000), wk =   0.0400000
        k(   26) = (   0.2000000  -0.1000000   0.0000000), wk =   0.0400000
        k(   27) = (   0.3000000   0.0000000   0.0000000), wk =   0.0400000
        k(   28) = (   0.3000000   0.1000000   0.0000000), wk =   0.0400000
        k(   29) = (   0.3000000   0.2000000   0.0000000), wk =   0.0400000
        k(   30) = (   0.3000000   0.3000000   0.0000000), wk =   0.0400000
        k(   31) = (   0.3000000   0.4000000   0.0000000), wk =   0.0400000
        k(   32) = (   0.3000000  -0.5000000  -0.0000000), wk =   0.0400000
        k(   33) = (   0.3000000  -0.4000000   0.0000000), wk =   0.0400000
        k(   34) = (   0.3000000  -0.3000000   0.0000000), wk =   0.0400000
        k(   35) = (   0.3000000  -0.2000000   0.0000000), wk =   0.0400000
        k(   36) = (   0.3000000  -0.1000000   0.0000000), wk =   0.0400000
        k(   37) = (   0.4000000   0.0000000   0.0000000), wk =   0.0400000
        k(   38) = (   0.4000000   0.1000000   0.0000000), wk =   0.0400000
        k(   39) = (   0.4000000   0.2000000   0.0000000), wk =   0.0400000
        k(   40) = (   0.4000000   0.3000000   0.0000000), wk =   0.0400000
        k(   41) = (   0.4000000   0.4000000   0.0000000), wk =   0.0400000
        k(   42) = (   0.4000000  -0.5000000   0.0000000), wk =   0.0400000
        k(   43) = (   0.4000000  -0.4000000  -0.0000000), wk =   0.0400000
        k(   44) = (   0.4000000  -0.3000000   0.0000000), wk =   0.0400000
        k(   45) = (   0.4000000  -0.2000000   0.0000000), wk =   0.0400000
        k(   46) = (   0.4000000  -0.1000000   0.0000000), wk =   0.0400000
        k(   47) = (  -0.5000000   0.0000000  -0.0000000), wk =   0.0200000
        k(   48) = (  -0.5000000   0.1000000  -0.0000000), wk =   0.0400000
        k(   49) = (  -0.5000000   0.2000000  -0.0000000), wk =   0.0400000
        k(   50) = (  -0.5000000   0.3000000  -0.0000000), wk =   0.0400000
        k(   51) = (  -0.5000000   0.4000000  -0.0000000), wk =   0.0400000
        k(   52) = (  -0.5000000  -0.5000000  -0.0000000), wk =   0.0200000

     Dense  grid:    88889 G-vectors     FFT dimensions: (  30,  30, 240)

     Smooth grid:    31423 G-vectors     FFT dimensions: (  24,  24, 162)

     Dynamical RAM for                 wfc:       1.14 MB

     Dynamical RAM for     wfc (w. buffer):      60.25 MB

     Dynamical RAM for           str. fact:       2.71 MB

     Dynamical RAM for           local pot:       0.00 MB

     Dynamical RAM for          nlocal pot:       2.87 MB

     Dynamical RAM for                qrad:       0.67 MB

     Dynamical RAM for          rho,v,vnew:       9.01 MB

     Dynamical RAM for               rhoin:       3.00 MB

     Dynamical RAM for            rho*nmix:      21.70 MB

     Dynamical RAM for           G-vectors:       5.33 MB

     Dynamical RAM for          h,s,v(r/c):       0.02 MB

     Dynamical RAM for          <psi|beta>:       0.01 MB

     Dynamical RAM for      wfcinit/wfcrot:       2.89 MB

     Dynamical RAM for           addusdens:      63.75 MB

     Dynamical RAM for          addusforce:      80.71 MB

     Dynamical RAM for         addusstress:      67.82 MB

     Estimated static dynamical RAM per process >     117.86 MB

     Estimated max dynamical RAM per process >     198.57 MB

     Check: negative core charge=   -0.000005

     Initial potential from superposition of free atoms

     starting charge   29.99983, renormalised to   30.00000

     negative rho (up, down):  5.058E-04 0.000E+00
     Starting wfcs are   24 randomized atomic wfcs
     Checking if some PAW data can be deallocated... 

     total cpu time spent up to now is        9.8 secs

     Self-consistent Calculation

     iteration #  1     ecut=    45.00 Ry     beta= 0.40
     CG style diagonalization
     ethr =  1.00E-02,  avg # of iterations =  3.1

     negative rho (up, down):  5.019E-04 0.000E+00

     total cpu time spent up to now is       24.1 secs

     total energy              =    -189.91428910 Ry
     Harris-Foulkes estimate   =    -190.04568352 Ry
     estimated scf accuracy    <       0.33872367 Ry

     iteration #  2     ecut=    45.00 Ry     beta= 0.40
     CG style diagonalization
     ethr =  1.13E-03,  avg # of iterations =  3.3

     negative rho (up, down):  5.795E-04 0.000E+00

     total cpu time spent up to now is       37.3 secs

     total energy              =    -189.93746192 Ry
     Harris-Foulkes estimate   =    -189.95861714 Ry
     estimated scf accuracy    <       0.05936570 Ry

     iteration #  3     ecut=    45.00 Ry     beta= 0.40
     CG style diagonalization
     ethr =  1.98E-04,  avg # of iterations =  3.4

     negative rho (up, down):  6.673E-04 0.000E+00

     total cpu time spent up to now is       50.8 secs

     total energy              =    -189.93897338 Ry
     Harris-Foulkes estimate   =    -189.94285378 Ry
     estimated scf accuracy    <       0.01085652 Ry

     iteration #  4     ecut=    45.00 Ry     beta= 0.40
     CG style diagonalization
     c_bands:  1 eigenvalues not converged
     c_bands:  1 eigenvalues not converged
     c_bands:  1 eigenvalues not converged
     ethr =  3.62E-05,  avg # of iterations =  4.0

     negative rho (up, down):  6.628E-04 0.000E+00

     total cpu time spent up to now is       66.9 secs

     total energy              =    -189.94037871 Ry
     Harris-Foulkes estimate   =    -189.94066415 Ry
     estimated scf accuracy    <       0.00109062 Ry

     iteration #  5     ecut=    45.00 Ry     beta= 0.40
     CG style diagonalization
     c_bands:  1 eigenvalues not converged
     ethr =  3.64E-06,  avg # of iterations =  4.4

     negative rho (up, down):  6.491E-04 0.000E+00

     total cpu time spent up to now is       83.1 secs

     total energy              =    -189.94059600 Ry
     Harris-Foulkes estimate   =    -189.94064747 Ry
     estimated scf accuracy    <       0.00013202 Ry

     iteration #  6     ecut=    45.00 Ry     beta= 0.40
     CG style diagonalization
     ethr =  4.40E-07,  avg # of iterations =  3.9

     negative rho (up, down):  6.439E-04 0.000E+00

     total cpu time spent up to now is       96.0 secs

     total energy              =    -189.94062677 Ry
     Harris-Foulkes estimate   =    -189.94064040 Ry
     estimated scf accuracy    <       0.00004237 Ry

     iteration #  7     ecut=    45.00 Ry     beta= 0.40
     CG style diagonalization
     ethr =  1.41E-07,  avg # of iterations =  3.6

     negative rho (up, down):  6.410E-04 0.000E+00

     total cpu time spent up to now is      108.5 secs

     total energy              =    -189.94063575 Ry
     Harris-Foulkes estimate   =    -189.94063605 Ry
     estimated scf accuracy    <       0.00000112 Ry

     iteration #  8     ecut=    45.00 Ry     beta= 0.40
     CG style diagonalization
     ethr =  3.74E-09,  avg # of iterations =  4.2

     negative rho (up, down):  6.397E-04 0.000E+00

     total cpu time spent up to now is      122.8 secs

     total energy              =    -189.94063641 Ry
     Harris-Foulkes estimate   =    -189.94063645 Ry
     estimated scf accuracy    <       0.00000018 Ry

     iteration #  9     ecut=    45.00 Ry     beta= 0.40
     CG style diagonalization
     ethr =  5.95E-10,  avg # of iterations =  3.5

     negative rho (up, down):  6.396E-04 0.000E+00

     total cpu time spent up to now is      135.5 secs

     total energy              =    -189.94063644 Ry
     Harris-Foulkes estimate   =    -189.94063646 Ry
     estimated scf accuracy    <       0.00000004 Ry

     iteration # 10     ecut=    45.00 Ry     beta= 0.40
     CG style diagonalization
     ethr =  1.48E-10,  avg # of iterations =  3.7

     negative rho (up, down):  6.396E-04 0.000E+00

     total cpu time spent up to now is      147.9 secs

     total energy              =    -189.94063646 Ry
     Harris-Foulkes estimate   =    -189.94063647 Ry
     estimated scf accuracy    <       0.00000004 Ry

     iteration # 11     ecut=    45.00 Ry     beta= 0.40
     CG style diagonalization
     ethr =  1.30E-10,  avg # of iterations =  3.2

     negative rho (up, down):  6.396E-04 0.000E+00

     total cpu time spent up to now is      158.2 secs

     total energy              =    -189.94063646 Ry
     Harris-Foulkes estimate   =    -189.94063646 Ry
     estimated scf accuracy    <          4.8E-09 Ry

     iteration # 12     ecut=    45.00 Ry     beta= 0.40
     CG style diagonalization
     ethr =  1.60E-11,  avg # of iterations =  3.4

     negative rho (up, down):  6.398E-04 0.000E+00

     total cpu time spent up to now is      169.9 secs

     End of self-consistent calculation

          k = 0.0000 0.0000 0.0000 (  3897 PWs)   bands (ev):

   -27.2861 -27.2383 -21.4630 -18.0389 -12.1197  -9.3981  -6.2230  -5.8041
    -5.8041  -5.5417  -5.5417  -3.2695  -3.2695  -2.0119  -2.0119   1.9641
     4.3214   4.6322   4.6323

     occupation numbers 
     1.0000   1.0000   1.0000   1.0000   1.0000   1.0000   1.0000   1.0000
     1.0000   1.0000   1.0000   1.0000   1.0000   1.0000   1.0000   0.0000
     0.0000   0.0000   0.0000

          k = 0.0000 0.1155-0.0000 (  3897 PWs)   bands (ev):

   -27.1974 -27.1538 -21.2531 -17.8603 -11.9873  -9.3635  -6.7801  -6.2837
    -6.0757  -5.8611  -5.6898  -3.8545  -3.5101  -2.7417  -2.2659   2.4204
     4.1974   5.1624   5.2555

     occupation numbers 
     1.0000   1.0000   1.0000   1.0000   1.0000   1.0000   1.0000   1.0000
     1.0000   1.0000   1.0000   1.0000   1.0000   1.0000   1.0000   0.0000
     0.0000   0.0000   0.0000

          k = 0.0000 0.2309-0.0000 (  3913 PWs)   bands (ev):

   -26.9584 -26.9258 -20.6251 -17.3285 -11.6344  -9.3814  -8.4705  -7.7061
    -6.7434  -6.4455  -6.0954  -4.6180  -4.1183  -3.9305  -2.8082   2.8897
     4.0542   5.7781   6.4383

     occupation numbers 
     1.0000   1.0000   1.0000   1.0000   1.0000   1.0000   1.0000   1.0000
     1.0000   1.0000   1.0000   1.0000   1.0000   1.0000   1.0000   0.0000
     0.0000   0.0000   0.0000

          k = 0.0000 0.3464-0.0000 (  3933 PWs)   bands (ev):

   -26.6481 -26.6288 -19.5879 -16.4582 -11.6088 -10.6481  -9.7983  -8.7830
    -7.4777  -7.2007  -6.5977  -5.6005  -4.8588  -4.2708  -3.3000   2.7382
     4.3189   5.6785   7.6857

     occupation numbers 
     1.0000   1.0000   1.0000   1.0000   1.0000   1.0000   1.0000   1.0000
     1.0000   1.0000   1.0000   1.0000   1.0000   1.0000   1.0000   0.0000
     0.0000   0.0000   0.0000

          k = 0.0000 0.4619-0.0000 (  3953 PWs)   bands (ev):

   -26.3832 -26.3748 -18.1865 -15.3242 -13.6247 -11.8112 -10.1330  -9.0479
    -8.0052  -7.6886  -6.9916  -6.4889  -5.1432  -4.4862  -3.6092   2.6473
     4.3005   5.1022   7.3724

     occupation numbers 
     1.0000   1.0000   1.0000   1.0000   1.0000   1.0000   1.0000   1.0000
     1.0000   1.0000   1.0000   1.0000   1.0000   1.0000   1.0000   0.0000
     0.0000   0.0000   0.0000

          k = 0.0000-0.5774 0.0000 (  3930 PWs)   bands (ev):

   -26.2777 -26.2750 -16.9870 -15.4015 -13.9209 -13.1915  -9.8109  -9.2864
    -8.1933  -7.8076  -7.1379  -6.8121  -5.2564  -4.5606  -3.7131   2.7264
     3.9445   4.9719   7.8522

     occupation numbers 
     1.0000   1.0000   1.0000   1.0000   1.0000   1.0000   1.0000   1.0000
     1.0000   1.0000   1.0000   1.0000   1.0000   1.0000   1.0000   0.0000
     0.0000   0.0000   0.0000

          k = 0.1000-0.0577-0.0000 (  3897 PWs)   bands (ev):

   -27.1974 -27.1538 -21.2531 -17.8603 -11.9873  -9.3635  -6.7801  -6.2837
    -6.0757  -5.8611  -5.6898  -3.8545  -3.5101  -2.7417  -2.2659   2.4204
     4.1974   5.1624   5.2555

     occupation numbers 
     1.0000   1.0000   1.0000   1.0000   1.0000   1.0000   1.0000   1.0000
     1.0000   1.0000   1.0000   1.0000   1.0000   1.0000   1.0000   0.0000
     0.0000   0.0000   0.0000

          k = 0.1000 0.0577-0.0000 (  3897 PWs)   bands (ev):

   -27.1974 -27.1538 -21.2531 -17.8603 -11.9873  -9.3635  -6.7801  -6.2836
    -6.0757  -5.8611  -5.6899  -3.8545  -3.5101  -2.7417  -2.2659   2.4204
     4.1974   5.1624   5.2552

     occupation numbers 
     1.0000   1.0000   1.0000   1.0000   1.0000   1.0000   1.0000   1.0000
     1.0000   1.0000   1.0000   1.0000   1.0000   1.0000   1.0000   0.0000
     0.0000   0.0000   0.0000

          k = 0.1000 0.1732-0.0000 (  3901 PWs)   bands (ev):

   -27.0334 -26.9975 -20.8340 -17.5050 -11.7422  -9.3351  -7.7816  -7.1877
    -6.8313  -6.3916  -5.8503  -4.2629  -4.2219  -3.3881  -2.9001   3.0472
     4.2690   5.5272   6.0601

     occupation numbers 
     1.0000   1.0000   1.0000   1.0000   1.0000   1.0000   1.0000   1.0000
     1.0000   1.0000   1.0000   1.0000   1.0000   1.0000   1.0000   0.0000
     0.0000   0.0000   0.0000

          k = 0.1000 0.2887-0.0000 (  3913 PWs)   bands (ev):

   -26.7580 -26.7340 -20.0003 -16.8024 -11.3965  -9.8389  -9.3314  -8.4061
    -7.7726  -7.1747  -6.3552  -5.2215  -4.6067  -4.1675  -3.5242   3.5538
     4.4300   6.2475   6.7347

     occupation numbers 
     1.0000   1.0000   1.0000   1.0000   1.0000   1.0000   1.0000   1.0000
     1.0000   1.0000   1.0000   1.0000   1.0000   1.0000   1.0000   0.0000
     0.0000   0.0000   0.0000

          k = 0.1000 0.4041-0.0000 (  3927 PWs)   bands (ev):

   -26.4685 -26.4561 -18.7721 -15.7801 -12.4712 -11.0105 -10.1634  -8.9638
    -8.4438  -7.7234  -7.0643  -6.0802  -5.1018  -4.4913  -3.8898   3.5076
     4.7732   6.0178   7.3398

     occupation numbers 
     1.0000   1.0000   1.0000   1.0000   1.0000   1.0000   1.0000   1.0000
     1.0000   1.0000   1.0000   1.0000   1.0000   1.0000   1.0000   0.0000
     0.0000   0.0000   0.0000

          k = 0.1000-0.6351 0.0000 (  3947 PWs)   bands (ev):

   -26.2812 -26.2770 -17.2840 -14.9193 -14.0951 -12.5754  -9.8728  -9.2705
    -8.7912  -7.8489  -7.5869  -6.6033  -5.3924  -4.6024  -4.0819   3.6734
     4.3554   5.7927   7.6046

     occupation numbers 
     1.0000   1.0000   1.0000   1.0000   1.0000   1.0000   1.0000   1.0000
     1.0000   1.0000   1.0000   1.0000   1.0000   1.0000   1.0000   0.0000
     0.0000   0.0000   0.0000

          k = 0.1000-0.5196 0.0000 (  3947 PWs)   bands (ev):

   -26.2812 -26.2770 -17.2840 -14.9193 -14.0951 -12.5754  -9.8728  -9.2705
    -8.7912  -7.8490  -7.5869  -6.6033  -5.3924  -4.6024  -4.0819   3.6735
     4.3555   5.7927   7.6044

     occupation numbers 
     1.0000   1.0000   1.0000   1.0000   1.0000   1.0000   1.0000   1.0000
     1.0000   1.0000   1.0000   1.0000   1.0000   1.0000   1.0000   0.0000
     0.0000   0.0000   0.0000

          k = 0.1000-0.4041 0.0000 (  3927 PWs)   bands (ev):

   -26.4685 -26.4561 -18.7721 -15.7801 -12.4712 -11.0105 -10.1634  -8.9638
    -8.4438  -7.7234  -7.0642  -6.0802  -5.1018  -4.4913  -3.8898   3.5076
     4.7733   6.0178   7.3399

     occupation numbers 
     1.0000   1.0000   1.0000   1.0000   1.0000   1.0000   1.0000   1.0000
     1.0000   1.0000   1.0000   1.0000   1.0000   1.0000   1.0000   0.0000
     0.0000   0.0000   0.0000

          k = 0.1000-0.2887 0.0000 (  3913 PWs)   bands (ev):

   -26.7580 -26.7340 -20.0003 -16.8024 -11.3965  -9.8389  -9.3314  -8.4061
    -7.7726  -7.1747  -6.3552  -5.2215  -4.6067  -4.1675  -3.5242   3.5538
     4.4301   6.2477   6.7347

     occupation numbers 
     1.0000   1.0000   1.0000   1.0000   1.0000   1.0000   1.0000   1.0000
     1.0000   1.0000   1.0000   1.0000   1.0000   1.0000   1.0000   0.0000
     0.0000   0.0000   0.0000

          k = 0.1000-0.1732 0.0000 (  3901 PWs)   bands (ev):

   -27.0334 -26.9975 -20.8340 -17.5050 -11.7422  -9.3351  -7.7817  -7.1877
    -6.8313  -6.3916  -5.8503  -4.2629  -4.2219  -3.3881  -2.9001   3.0472
     4.2690   5.5272   6.0603

     occupation numbers 
     1.0000   1.0000   1.0000   1.0000   1.0000   1.0000   1.0000   1.0000
     1.0000   1.0000   1.0000   1.0000   1.0000   1.0000   1.0000   0.0000
     0.0000   0.0000   0.0000

          k = 0.2000-0.1155-0.0000 (  3913 PWs)   bands (ev):

   -26.9584 -26.9258 -20.6251 -17.3285 -11.6344  -9.3814  -8.4705  -7.7060
    -6.7434  -6.4455  -6.0954  -4.6180  -4.1183  -3.9305  -2.8082   2.8896
     4.0542   5.7779   6.4381

     occupation numbers 
     1.0000   1.0000   1.0000   1.0000   1.0000   1.0000   1.0000   1.0000
     1.0000   1.0000   1.0000   1.0000   1.0000   1.0000   1.0000   0.0000
     0.0000   0.0000   0.0000

          k = 0.2000-0.0000-0.0000 (  3901 PWs)   bands (ev):

   -27.0334 -26.9975 -20.8340 -17.5050 -11.7422  -9.3351  -7.7816  -7.1877
    -6.8313  -6.3916  -5.8503  -4.2629  -4.2219  -3.3881  -2.9001   3.0472
     4.2690   5.5272   6.0600

     occupation numbers 
     1.0000   1.0000   1.0000   1.0000   1.0000   1.0000   1.0000   1.0000
     1.0000   1.0000   1.0000   1.0000   1.0000   1.0000   1.0000   0.0000
     0.0000   0.0000   0.0000

          k = 0.2000 0.1155-0.0000 (  3913 PWs)   bands (ev):

   -26.9584 -26.9259 -20.6251 -17.3285 -11.6344  -9.3814  -8.4705  -7.7060
    -6.7434  -6.4455  -6.0954  -4.6180  -4.1183  -3.9305  -2.8082   2.8896
     4.0542   5.7781   6.4382

     occupation numbers 
     1.0000   1.0000   1.0000   1.0000   1.0000   1.0000   1.0000   1.0000
     1.0000   1.0000   1.0000   1.0000   1.0000   1.0000   1.0000   0.0000
     0.0000   0.0000   0.0000

          k = 0.2000 0.2309-0.0000 (  3913 PWs)   bands (ev):

   -26.7580 -26.7340 -20.0003 -16.8024 -11.3965  -9.8389  -9.3314  -8.4061
    -7.7726  -7.1748  -6.3552  -5.2215  -4.6067  -4.1675  -3.5242   3.5538
     4.4300   6.2476   6.7348

     occupation numbers 
     1.0000   1.0000   1.0000   1.0000   1.0000   1.0000   1.0000   1.0000
     1.0000   1.0000   1.0000   1.0000   1.0000   1.0000   1.0000   0.0000
     0.0000   0.0000   0.0000

          k = 0.2000 0.3464-0.0000 (  3911 PWs)   bands (ev):

   -26.5016 -26.4877 -18.9713 -15.9406 -11.6875 -10.6398 -10.1306  -8.9015
    -8.8538  -8.2955  -6.9172  -5.9699  -4.8678  -4.5633  -4.3383   4.5371
     4.9375   6.7827   7.8383

     occupation numbers 
     1.0000   1.0000   1.0000   1.0000   1.0000   1.0000   1.0000   1.0000
     1.0000   1.0000   1.0000   1.0000   1.0000   1.0000   1.0000   0.0000
     0.0000   0.0000   0.0000

          k = 0.2000-0.6928 0.0000 (  3926 PWs)   bands (ev):

   -26.2866 -26.2807 -17.5916 -14.8136 -13.2615 -11.8687 -10.0881  -9.8385
    -9.3218  -8.4505  -7.6413  -6.3417  -5.4647  -4.8461  -4.5670   4.4951
     5.7306   6.8340   7.7270

     occupation numbers 
     1.0000   1.0000   1.0000   1.0000   1.0000   1.0000   1.0000   1.0000
     1.0000   1.0000   1.0000   1.0000   1.0000   1.0000   1.0000   0.0000
     0.0000   0.0000   0.0000

          k = 0.2000-0.5774 0.0000 (  3921 PWs)   bands (ev):

   -26.2020 -26.2002 -16.4381 -14.8404 -13.3873 -13.0601 -10.5866  -9.7512
    -9.2224  -8.5079  -8.0109  -6.4160  -5.7673  -4.9039  -4.6496   4.4882
     5.6956   7.2555   7.4179

     occupation numbers 
     1.0000   1.0000   1.0000   1.0000   1.0000   1.0000   1.0000   1.0000
     1.0000   1.0000   1.0000   1.0000   1.0000   1.0000   1.0000   0.0000
     0.0000   0.0000   0.0000

          k = 0.2000-0.4619 0.0000 (  3926 PWs)   bands (ev):

   -26.2866 -26.2807 -17.5916 -14.8136 -13.2615 -11.8687 -10.0881  -9.8385
    -9.3219  -8.4505  -7.6413  -6.3417  -5.4647  -4.8461  -4.5670   4.4952
     5.7306   6.8339   7.7270

     occupation numbers 
     1.0000   1.0000   1.0000   1.0000   1.0000   1.0000   1.0000   1.0000
     1.0000   1.0000   1.0000   1.0000   1.0000   1.0000   1.0000   0.0000
     0.0000   0.0000   0.0000

          k = 0.2000-0.3464 0.0000 (  3911 PWs)   bands (ev):

   -26.5016 -26.4877 -18.9713 -15.9406 -11.6875 -10.6398 -10.1306  -8.9015
    -8.8538  -8.2955  -6.9172  -5.9699  -4.8678  -4.5633  -4.3383   4.5371
     4.9375   6.7827   7.8382

     occupation numbers 
     1.0000   1.0000   1.0000   1.0000   1.0000   1.0000   1.0000   1.0000
     1.0000   1.0000   1.0000   1.0000   1.0000   1.0000   1.0000   0.0000
     0.0000   0.0000   0.0000

          k = 0.2000-0.2309-0.0000 (  3913 PWs)   bands (ev):

   -26.7580 -26.7340 -20.0003 -16.8024 -11.3965  -9.8389  -9.3314  -8.4061
    -7.7726  -7.1747  -6.3552  -5.2215  -4.6067  -4.1675  -3.5242   3.5538
     4.4301   6.2476   6.7347

     occupation numbers 
     1.0000   1.0000   1.0000   1.0000   1.0000   1.0000   1.0000   1.0000
     1.0000   1.0000   1.0000   1.0000   1.0000   1.0000   1.0000   0.0000
     0.0000   0.0000   0.0000

          k = 0.3000-0.1732-0.0000 (  3933 PWs)   bands (ev):

   -26.6481 -26.6288 -19.5879 -16.4582 -11.6088 -10.6481  -9.7983  -8.7830
    -7.4777  -7.2007  -6.5977  -5.6005  -4.8588  -4.2708  -3.3000   2.7382
     4.3189   5.6785   7.6856

     occupation numbers 
     1.0000   1.0000   1.0000   1.0000   1.0000   1.0000   1.0000   1.0000
     1.0000   1.0000   1.0000   1.0000   1.0000   1.0000   1.0000   0.0000
     0.0000   0.0000   0.0000

          k = 0.3000-0.0577-0.0000 (  3913 PWs)   bands (ev):

   -26.7580 -26.7340 -20.0003 -16.8024 -11.3965  -9.8389  -9.3314  -8.4061
    -7.7726  -7.1747  -6.3552  -5.2215  -4.6067  -4.1675  -3.5242   3.5538
     4.4300   6.2475   6.7347

     occupation numbers 
     1.0000   1.0000   1.0000   1.0000   1.0000   1.0000   1.0000   1.0000
     1.0000   1.0000   1.0000   1.0000   1.0000   1.0000   1.0000   0.0000
     0.0000   0.0000   0.0000

          k = 0.3000 0.0577-0.0000 (  3913 PWs)   bands (ev):

   -26.7580 -26.7340 -20.0003 -16.8024 -11.3965  -9.8389  -9.3314  -8.4061
    -7.7726  -7.1748  -6.3552  -5.2215  -4.6067  -4.1675  -3.5242   3.5538
     4.4300   6.2475   6.7349

     occupation numbers 
     1.0000   1.0000   1.0000   1.0000   1.0000   1.0000   1.0000   1.0000
     1.0000   1.0000   1.0000   1.0000   1.0000   1.0000   1.0000   0.0000
     0.0000   0.0000   0.0000

          k = 0.3000 0.1732-0.0000 (  3933 PWs)   bands (ev):

   -26.6481 -26.6288 -19.5879 -16.4582 -11.6088 -10.6481  -9.7983  -8.7830
    -7.4777  -7.2007  -6.5977  -5.6005  -4.8588  -4.2708  -3.3000   2.7382
     4.3189   5.6785   7.6855

     occupation numbers 
     1.0000   1.0000   1.0000   1.0000   1.0000   1.0000   1.0000   1.0000
     1.0000   1.0000   1.0000   1.0000   1.0000   1.0000   1.0000   0.0000
     0.0000   0.0000   0.0000

          k = 0.3000 0.2887-0.0000 (  3927 PWs)   bands (ev):

   -26.4685 -26.4561 -18.7721 -15.7801 -12.4712 -11.0105 -10.1634  -8.9638
    -8.4438  -7.7234  -7.0643  -6.0802  -5.1018  -4.4913  -3.8898   3.5076
     4.7732   6.0178   7.3400

     occupation numbers 
     1.0000   1.0000   1.0000   1.0000   1.0000   1.0000   1.0000   1.0000
     1.0000   1.0000   1.0000   1.0000   1.0000   1.0000   1.0000   0.0000
     0.0000   0.0000   0.0000

          k = 0.3000-0.7506 0.0000 (  3926 PWs)   bands (ev):

   -26.2866 -26.2807 -17.5916 -14.8136 -13.2615 -11.8687 -10.0881  -9.8385
    -9.3218  -8.4505  -7.6413  -6.3417  -5.4647  -4.8461  -4.5670   4.4951
     5.7305   6.8340   7.7271

     occupation numbers 
     1.0000   1.0000   1.0000   1.0000   1.0000   1.0000   1.0000   1.0000
     1.0000   1.0000   1.0000   1.0000   1.0000   1.0000   1.0000   0.0000
     0.0000   0.0000   0.0000

          k = 0.3000-0.6351 0.0000 (  3911 PWs)   bands (ev):

   -26.1729 -26.1711 -16.2508 -13.9587 -13.8244 -12.8364 -10.9457 -10.7165
    -9.0581  -8.5835  -8.2705  -6.2005  -5.7174  -5.5808  -4.6558   4.8367
     5.5487   7.7856   9.0377

     occupation numbers 
     1.0000   1.0000   1.0000   1.0000   1.0000   1.0000   1.0000   1.0000
     1.0000   1.0000   1.0000   1.0000   1.0000   1.0000   1.0000   0.0000
     0.0000   0.0000   0.0000

          k = 0.3000-0.5196 0.0000 (  3911 PWs)   bands (ev):

   -26.1729 -26.1711 -16.2508 -13.9587 -13.8244 -12.8364 -10.9457 -10.7165
    -9.0581  -8.5835  -8.2705  -6.2005  -5.7174  -5.5808  -4.6558   4.8368
     5.5486   7.7856   9.0380

     occupation numbers 
     1.0000   1.0000   1.0000   1.0000   1.0000   1.0000   1.0000   1.0000
     1.0000   1.0000   1.0000   1.0000   1.0000   1.0000   1.0000   0.0000
     0.0000   0.0000   0.0000

          k = 0.3000-0.4041-0.0000 (  3926 PWs)   bands (ev):

   -26.2866 -26.2807 -17.5916 -14.8136 -13.2615 -11.8687 -10.0881  -9.8385
    -9.3219  -8.4505  -7.6413  -6.3417  -5.4647  -4.8461  -4.5670   4.4952
     5.7305   6.8339   7.7270

     occupation numbers 
     1.0000   1.0000   1.0000   1.0000   1.0000   1.0000   1.0000   1.0000
     1.0000   1.0000   1.0000   1.0000   1.0000   1.0000   1.0000   0.0000
     0.0000   0.0000   0.0000

          k = 0.3000-0.2887-0.0000 (  3927 PWs)   bands (ev):

   -26.4685 -26.4561 -18.7721 -15.7801 -12.4712 -11.0105 -10.1634  -8.9638
    -8.4438  -7.7234  -7.0642  -6.0802  -5.1018  -4.4913  -3.8898   3.5076
     4.7733   6.0178   7.3399

     occupation numbers 
     1.0000   1.0000   1.0000   1.0000   1.0000   1.0000   1.0000   1.0000
     1.0000   1.0000   1.0000   1.0000   1.0000   1.0000   1.0000   0.0000
     0.0000   0.0000   0.0000

          k = 0.4000-0.2309-0.0000 (  3953 PWs)   bands (ev):

   -26.3832 -26.3748 -18.1865 -15.3242 -13.6247 -11.8112 -10.1330  -9.0479
    -8.0052  -7.6886  -6.9916  -6.4889  -5.1432  -4.4862  -3.6092   2.6473
     4.3005   5.1023   7.3725

     occupation numbers 
     1.0000   1.0000   1.0000   1.0000   1.0000   1.0000   1.0000   1.0000
     1.0000   1.0000   1.0000   1.0000   1.0000   1.0000   1.0000   0.0000
     0.0000   0.0000   0.0000

          k = 0.4000-0.1155-0.0000 (  3927 PWs)   bands (ev):

   -26.4685 -26.4561 -18.7721 -15.7801 -12.4712 -11.0105 -10.1634  -8.9638
    -8.4438  -7.7234  -7.0643  -6.0802  -5.1018  -4.4913  -3.8898   3.5076
     4.7732   6.0178   7.3398

     occupation numbers 
     1.0000   1.0000   1.0000   1.0000   1.0000   1.0000   1.0000   1.0000
     1.0000   1.0000   1.0000   1.0000   1.0000   1.0000   1.0000   0.0000
     0.0000   0.0000   0.0000

          k = 0.4000-0.0000-0.0000 (  3911 PWs)   bands (ev):

   -26.5016 -26.4877 -18.9713 -15.9406 -11.6875 -10.6398 -10.1306  -8.9015
    -8.8538  -8.2955  -6.9172  -5.9699  -4.8678  -4.5633  -4.3383   4.5370
     4.9375   6.7827   7.8384

     occupation numbers 
     1.0000   1.0000   1.0000   1.0000   1.0000   1.0000   1.0000   1.0000
     1.0000   1.0000   1.0000   1.0000   1.0000   1.0000   1.0000   0.0000
     0.0000   0.0000   0.0000

          k = 0.4000 0.1155-0.0000 (  3927 PWs)   bands (ev):

   -26.4685 -26.4561 -18.7721 -15.7801 -12.4712 -11.0105 -10.1634  -8.9638
    -8.4438  -7.7234  -7.0643  -6.0802  -5.1018  -4.4913  -3.8898   3.5076
     4.7732   6.0178   7.3400

     occupation numbers 
     1.0000   1.0000   1.0000   1.0000   1.0000   1.0000   1.0000   1.0000
     1.0000   1.0000   1.0000   1.0000   1.0000   1.0000   1.0000   0.0000
     0.0000   0.0000   0.0000

          k = 0.4000 0.2309-0.0000 (  3953 PWs)   bands (ev):

   -26.3832 -26.3748 -18.1865 -15.3242 -13.6247 -11.8112 -10.1329  -9.0479
    -8.0052  -7.6886  -6.9916  -6.4889  -5.1432  -4.4862  -3.6092   2.6473
     4.3004   5.1023   7.3725

     occupation numbers 
     1.0000   1.0000   1.0000   1.0000   1.0000   1.0000   1.0000   1.0000
     1.0000   1.0000   1.0000   1.0000   1.0000   1.0000   1.0000   0.0000
     0.0000   0.0000   0.0000

          k = 0.4000-0.8083 0.0000 (  3947 PWs)   bands (ev):

   -26.2812 -26.2770 -17.2840 -14.9193 -14.0950 -12.5754  -9.8728  -9.2705
    -8.7912  -7.8490  -7.5869  -6.6033  -5.3924  -4.6024  -4.0819   3.6734
     4.3554   5.7928   7.6046

     occupation numbers 
     1.0000   1.0000   1.0000   1.0000   1.0000   1.0000   1.0000   1.0000
     1.0000   1.0000   1.0000   1.0000   1.0000   1.0000   1.0000   0.0000
     0.0000   0.0000   0.0000

          k = 0.4000-0.6928 0.0000 (  3921 PWs)   bands (ev):

   -26.2020 -26.2002 -16.4381 -14.8404 -13.3873 -13.0601 -10.5866  -9.7512
    -9.2224  -8.5079  -8.0110  -6.4160  -5.7673  -4.9039  -4.6496   4.4881
     5.6956   7.2556   7.4180

     occupation numbers 
     1.0000   1.0000   1.0000   1.0000   1.0000   1.0000   1.0000   1.0000
     1.0000   1.0000   1.0000   1.0000   1.0000   1.0000   1.0000   0.0000
     0.0000   0.0000   0.0000

          k = 0.4000-0.5774-0.0000 (  3911 PWs)   bands (ev):

   -26.1729 -26.1711 -16.2508 -13.9587 -13.8244 -12.8364 -10.9457 -10.7165
    -9.0581  -8.5835  -8.2705  -6.2005  -5.7174  -5.5808  -4.6558   4.8367
     5.5487   7.7857   9.0378

     occupation numbers 
     1.0000   1.0000   1.0000   1.0000   1.0000   1.0000   1.0000   1.0000
     1.0000   1.0000   1.0000   1.0000   1.0000   1.0000   1.0000   0.0000
     0.0000   0.0000   0.0000

          k = 0.4000-0.4619-0.0000 (  3921 PWs)   bands (ev):

   -26.2020 -26.2002 -16.4381 -14.8404 -13.3873 -13.0601 -10.5866  -9.7512
    -9.2224  -8.5079  -8.0109  -6.4160  -5.7673  -4.9039  -4.6496   4.4882
     5.6956   7.2555   7.4179

     occupation numbers 
     1.0000   1.0000   1.0000   1.0000   1.0000   1.0000   1.0000   1.0000
     1.0000   1.0000   1.0000   1.0000   1.0000   1.0000   1.0000   0.0000
     0.0000   0.0000   0.0000

          k = 0.4000-0.3464-0.0000 (  3947 PWs)   bands (ev):

   -26.2812 -26.2770 -17.2840 -14.9193 -14.0951 -12.5754  -9.8728  -9.2705
    -8.7912  -7.8490  -7.5869  -6.6033  -5.3924  -4.6024  -4.0819   3.6735
     4.3554   5.7927   7.6048

     occupation numbers 
     1.0000   1.0000   1.0000   1.0000   1.0000   1.0000   1.0000   1.0000
     1.0000   1.0000   1.0000   1.0000   1.0000   1.0000   1.0000   0.0000
     0.0000   0.0000   0.0000

          k =-0.5000 0.2887 0.0000 (  3930 PWs)   bands (ev):

   -26.2777 -26.2750 -16.9870 -15.4015 -13.9209 -13.1915  -9.8109  -9.2864
    -8.1933  -7.8076  -7.1379  -6.8121  -5.2564  -4.5606  -3.7131   2.7264
     3.9445   4.9719   7.8539

     occupation numbers 
     1.0000   1.0000   1.0000   1.0000   1.0000   1.0000   1.0000   1.0000
     1.0000   1.0000   1.0000   1.0000   1.0000   1.0000   1.0000   0.0000
     0.0000   0.0000   0.0000

          k =-0.5000 0.4041 0.0000 (  3947 PWs)   bands (ev):

   -26.2812 -26.2770 -17.2840 -14.9193 -14.0951 -12.5754  -9.8728  -9.2705
    -8.7912  -7.8490  -7.5869  -6.6033  -5.3924  -4.6024  -4.0819   3.6734
     4.3554   5.7927   7.6048

     occupation numbers 
     1.0000   1.0000   1.0000   1.0000   1.0000   1.0000   1.0000   1.0000
     1.0000   1.0000   1.0000   1.0000   1.0000   1.0000   1.0000   0.0000
     0.0000   0.0000   0.0000

          k =-0.5000 0.5196 0.0000 (  3926 PWs)   bands (ev):

   -26.2866 -26.2807 -17.5916 -14.8136 -13.2615 -11.8687 -10.0881  -9.8385
    -9.3218  -8.4505  -7.6413  -6.3417  -5.4647  -4.8461  -4.5670   4.4951
     5.7306   6.8340   7.7271

     occupation numbers 
     1.0000   1.0000   1.0000   1.0000   1.0000   1.0000   1.0000   1.0000
     1.0000   1.0000   1.0000   1.0000   1.0000   1.0000   1.0000   0.0000
     0.0000   0.0000   0.0000

          k =-0.5000 0.6351 0.0000 (  3926 PWs)   bands (ev):

   -26.2866 -26.2807 -17.5916 -14.8136 -13.2615 -11.8687 -10.0881  -9.8385
    -9.3218  -8.4505  -7.6413  -6.3417  -5.4647  -4.8461  -4.5670   4.4951
     5.7305   6.8340   7.7271

     occupation numbers 
     1.0000   1.0000   1.0000   1.0000   1.0000   1.0000   1.0000   1.0000
     1.0000   1.0000   1.0000   1.0000   1.0000   1.0000   1.0000   0.0000
     0.0000   0.0000   0.0000

          k =-0.5000 0.7506 0.0000 (  3947 PWs)   bands (ev):

   -26.2812 -26.2770 -17.2840 -14.9193 -14.0950 -12.5754  -9.8728  -9.2705
    -8.7912  -7.8490  -7.5869  -6.6033  -5.3924  -4.6024  -4.0819   3.6734
     4.3554   5.7927   7.6046

     occupation numbers 
     1.0000   1.0000   1.0000   1.0000   1.0000   1.0000   1.0000   1.0000
     1.0000   1.0000   1.0000   1.0000   1.0000   1.0000   1.0000   0.0000
     0.0000   0.0000   0.0000

          k =-0.5000-0.2887 0.0001 (  3930 PWs)   bands (ev):

   -26.2777 -26.2750 -16.9870 -15.4015 -13.9209 -13.1916  -9.8108  -9.2864
    -8.1934  -7.8076  -7.1379  -6.8120  -5.2564  -4.5606  -3.7131   2.7264
     3.9444   4.9719   7.8536

     occupation numbers 
     1.0000   1.0000   1.0000   1.0000   1.0000   1.0000   1.0000   1.0000
     1.0000   1.0000   1.0000   1.0000   1.0000   1.0000   1.0000   0.0000
     0.0000   0.0000   0.0000

     the Fermi energy is     0.2291 ev

!    total energy              =    -189.94063646 Ry
     Harris-Foulkes estimate   =    -189.94063646 Ry
     estimated scf accuracy    <          1.3E-10 Ry

     total all-electron energy =      -701.912751 Ry

     The total energy is the sum of the following terms:

     one-electron contribution =   -1506.89684621 Ry
     hartree contribution      =     763.09624522 Ry
     xc contribution           =     -37.16250827 Ry
     ewald contribution        =     636.01910727 Ry
     one-center paw contrib.   =     -44.99663447 Ry
      -> PAW hartree energy AE =     117.52096682 Ry
      -> PAW hartree energy PS =    -117.44127215 Ry
      -> PAW xc energy AE      =     -80.45714779 Ry
      -> PAW xc energy PS      =      35.38081866 Ry
      -> total E_H with PAW    =     763.17593989 Ry
      -> total E_XC with PAW   =     -82.23883740 Ry
     smearing contrib. (-TS)   =      -0.00000000 Ry

     convergence has been achieved in  12 iterations

     negative rho (up, down):  6.398E-04 0.000E+00

     Forces acting on atoms (cartesian axes, Ry/au):

     atom    1 type  1   force =    -0.00000133   -0.00000131   -0.00921462
     atom    2 type  1   force =    -0.00000356   -0.00000256    0.00041867
     atom    3 type  1   force =     0.00000074    0.00000094    0.00921442
     atom    4 type  1   force =     0.00000246    0.00000195   -0.00047050
     atom    5 type  2   force =     0.00000267    0.00000191    0.01753183
     atom    6 type  2   force =    -0.00000099   -0.00000093   -0.01747980
     The non-local contrib.  to forces
     atom    1 type  1   force =    -0.00000483   -0.00000431   -0.40586468
     atom    2 type  1   force =    -0.00000575   -0.00000435    0.08411442
     atom    3 type  1   force =     0.00000289    0.00000320    0.40588097
     atom    4 type  1   force =     0.00000326    0.00000296   -0.08412815
     atom    5 type  2   force =     0.00004211    0.00003120    3.17142857
     atom    6 type  2   force =    -0.00001643   -0.00001676   -3.17141256
     The ionic contribution  to forces
     atom    1 type  1   force =     0.00006601    0.00004732  -13.36767802
     atom    2 type  1   force =    -0.00000457    0.00000014   -9.40120984
     atom    3 type  1   force =    -0.00002607   -0.00002490   13.36783775
     atom    4 type  1   force =    -0.00000452   -0.00000517    9.40118888
     atom    5 type  2   force =    -0.00005247   -0.00003943  -66.85280486
     atom    6 type  2   force =     0.00002161    0.00002204   66.85266609
     The local contribution  to forces
     atom    1 type  1   force =    -0.00006232   -0.00004420   13.75589735
     atom    2 type  1   force =     0.00000687    0.00000170    9.31879412
     atom    3 type  1   force =     0.00002382    0.00002252  -13.75605693
     atom    4 type  1   force =     0.00000346    0.00000398   -9.31873284
     atom    5 type  2   force =     0.00001314    0.00001035   63.70910605
     atom    6 type  2   force =    -0.00000594   -0.00000623  -63.70900192
     The core correction contribution to forces
     atom    1 type  1   force =    -0.00000012   -0.00000006    0.00839090
     atom    2 type  1   force =     0.00000003    0.00000002   -0.00131160
     atom    3 type  1   force =     0.00000026    0.00000014   -0.00847192
     atom    4 type  1   force =     0.00000035    0.00000020    0.00116926
     atom    5 type  2   force =    -0.00000011   -0.00000009   -0.01024757
     atom    6 type  2   force =    -0.00000000    0.00000002    0.01024650
     The Hubbard contrib.    to forces
     atom    1 type  1   force =     0.00000000    0.00000000    0.00000000
     atom    2 type  1   force =     0.00000000    0.00000000    0.00000000
     atom    3 type  1   force =     0.00000000    0.00000000    0.00000000
     atom    4 type  1   force =     0.00000000    0.00000000    0.00000000
     atom    5 type  2   force =     0.00000000    0.00000000    0.00000000
     atom    6 type  2   force =     0.00000000    0.00000000    0.00000000
     The SCF correction term to forces
     atom    1 type  1   force =     0.00000003   -0.00000001    0.00000508
     atom    2 type  1   force =    -0.00000004   -0.00000002   -0.00000318
     atom    3 type  1   force =    -0.00000006    0.00000003   -0.00001019
     atom    4 type  1   force =     0.00000002    0.00000003   -0.00000239
     atom    5 type  2   force =     0.00000010   -0.00000007    0.00001489
     atom    6 type  2   force =    -0.00000013    0.00000003   -0.00001266

     Total force =     0.027984     Total SCF correction =     0.000023


     Computing stress (Cartesian axis) and pressure


     negative rho (up, down):  6.398E-04 0.000E+00
          total   stress  (Ry/bohr**3)                   (kbar)     P=  -23.28
  -0.00014816  -0.00000000  -0.00000001        -21.79     -0.00     -0.00
  -0.00000000  -0.00014816  -0.00000001         -0.00    -21.79     -0.00
  -0.00000001  -0.00000001  -0.00017843         -0.00     -0.00    -26.25

     kinetic stress (kbar)   9163.82     -0.00     -0.01
                               -0.00   9163.82     -0.01
                               -0.01     -0.01   8324.20

     local   stress (kbar)-286809.73      0.01     -0.02
                                0.01-286809.74     -0.02
                               -0.02     -0.02 276372.43

     nonloc. stress (kbar)   3143.04     -0.00     -0.00
                               -0.00   3143.04     -0.00
                               -0.00     -0.00   2879.63

     hartree stress (kbar) 141385.31     -0.00      0.01
                               -0.00 141385.31      0.00
                                0.01      0.00-136841.20

     exc-cor stress (kbar)  -1130.23     -0.00      0.00
                               -0.00  -1130.23      0.00
                                0.00      0.00  -1126.90

     corecor stress (kbar)   -939.38      0.00      0.00
                                0.00   -939.38      0.00
                                0.00      0.00   -931.71

     ewald   stress (kbar) 135165.36     -0.01      0.03
                               -0.01 135165.37      0.02
                                0.03      0.02-148702.69

     hubbard stress (kbar)      0.00      0.00      0.00
                                0.00      0.00      0.00
                                0.00      0.00      0.00

     london  stress (kbar)      0.00      0.00      0.00
                                0.00      0.00      0.00
                                0.00      0.00      0.00

     DFT-D3  stress (kbar)      0.00      0.00      0.00
                                0.00      0.00      0.00
                                0.00      0.00      0.00

     XDM     stress (kbar)      0.00      0.00      0.00
                                0.00      0.00      0.00
                                0.00      0.00      0.00

     dft-nl  stress (kbar)      0.00      0.00      0.00
                                0.00      0.00      0.00
                                0.00      0.00      0.00

     TS-vdW  stress (kbar)      0.00      0.00      0.00
                                0.00      0.00      0.00
                                0.00      0.00      0.00

     3D-RISM stress (kbar)      0.00      0.00      0.00
                                0.00      0.00      0.00
                                0.00      0.00      0.00



     Writing output data file pwscf.save\

     init_run     :     12.27s CPU      7.69s WALL (       1 calls)
     electrons    :    216.23s CPU    160.05s WALL (       1 calls)
     forces       :      7.52s CPU      1.45s WALL (       1 calls)
     stress       :     20.44s CPU      4.81s WALL (       1 calls)

     Called by init_run:
     wfcinit      :      3.72s CPU      2.71s WALL (       1 calls)
     wfcinit:atom :      0.06s CPU      0.08s WALL (      52 calls)
     wfcinit:wfcr :      3.25s CPU      2.06s WALL (      52 calls)
     potinit      :      3.72s CPU      0.68s WALL (       1 calls)
     hinit0       :      4.80s CPU      4.15s WALL (       1 calls)

     Called by electrons:
     c_bands      :    188.45s CPU    141.35s WALL (      12 calls)
     sum_band     :     21.25s CPU     14.36s WALL (      12 calls)
     v_of_rho     :      1.80s CPU      0.99s WALL (      13 calls)
     v_h          :      0.09s CPU      0.08s WALL (      13 calls)
     v_xc         :      1.94s CPU      1.06s WALL (      15 calls)
     newd         :      1.28s CPU      1.28s WALL (      13 calls)
     PAW_pot      :      3.28s CPU      2.01s WALL (      13 calls)
     mix_rho      :      0.38s CPU      0.25s WALL (      12 calls)

     Called by c_bands:
     init_us_2    :      2.22s CPU      1.10s WALL (    1404 calls)
     ccgdiagg     :    159.84s CPU    121.59s WALL (     624 calls)
     wfcrot       :     30.47s CPU     20.71s WALL (     624 calls)

     Called by sum_band:
     sum_band:bec :      0.12s CPU      0.39s WALL (     624 calls)
     addusdens    :      2.58s CPU      1.84s WALL (      12 calls)

     Called by *cgdiagg:
     h_psi        :    133.16s CPU     90.72s WALL (   32817 calls)
     s_psi        :     22.94s CPU     19.91s WALL (   65010 calls)
     cdiaghg      :      0.17s CPU      0.16s WALL (     624 calls)

     Called by h_psi:
     h_psi:pot    :    129.09s CPU     85.78s WALL (   32817 calls)
     h_psi:calbec :     14.58s CPU     10.95s WALL (   32817 calls)
     vloc_psi     :    100.00s CPU     65.72s WALL (   32817 calls)
     add_vuspsi   :     14.31s CPU      8.94s WALL (   32817 calls)
     hs_1psi      :    123.52s CPU     87.77s WALL (   32193 calls)
     s_1psi       :     24.12s CPU     21.59s WALL (   32193 calls)

     General routines
     calbec       :     26.23s CPU     19.93s WALL (   65894 calls)
     fft          :      0.11s CPU      0.16s WALL (     192 calls)
     ffts         :      0.02s CPU      0.01s WALL (      25 calls)
     fftw         :     73.59s CPU     44.39s WALL (  100474 calls)
     interpolate  :      0.05s CPU      0.07s WALL (      13 calls)

     Parallel routines

     PAW routines
     PAW_pot      :      3.28s CPU      2.01s WALL (      13 calls)

     PWSCF        :   4m17.72s CPU   2m56.39s WALL


   This run was terminated on:  17:14:52  19Nov2024            

=------------------------------------------------------------------------------=
   JOB DONE.
=------------------------------------------------------------------------------=
