
     Program PWSCF v.6.4.1 starts on 19Nov2024 at 17: 7:36 

     This program is part of the open-source Quantum ESPRESSO suite
     for quantum simulation of materials; please cite
         "P. Giannozzi et al., J. Phys.:Condens. Matter 21 395502 (2009);
         "P. Giannozzi et al., J. Phys.:Condens. Matter 29 465901 (2017);
          URL http://www.quantum-espresso.org", 
     in publications or presentations arising from this work. More details at
     http://www.quantum-espresso.org/quote

     Parallel version (MPI & OpenMP), running on      12 processor cores
     Number of MPI processes:                 1
     Threads/MPI process:                    12

     MPI processes distributed on     1 nodes
     Waiting for input...
     Reading input from standard input

     Current dimensions of program PWSCF are:
     Max number of different atomic species (ntypx) = 10
     Max number of k-points (npk) =  40000
     Max angular momentum in pseudopotentials (lmaxx) =  3
               file C.pbesol-n-kjpaw_psl.1.0.0.UPF: wavefunction(s)  2S 2P renormalized
               file F.pbesol-n-kjpaw_psl.1.0.0.UPF: wavefunction(s)  2S 2P renormalized

     Subspace diagonalization in iterative solution of the eigenvalue problem:
     a serial algorithm will be used


     G-vector sticks info
     --------------------
     sticks:   dense  smooth     PW     G-vecs:    dense   smooth      PW
     Sum         583     295     97                88889    31423    6191



     bravais-lattice index     =            0
     lattice parameter (alat)  =       4.8507  a.u.
     unit-cell volume          =     769.2439 (a.u.)^3
     number of atoms/cell      =            6
     number of atomic types    =            2
     number of electrons       =        30.00
     number of Kohn-Sham states=           19
     kinetic-energy cutoff     =      45.0000  Ry
     charge density cutoff     =     360.0000  Ry
     convergence threshold     =      1.2E-09
     mixing beta               =       0.4000
     number of iterations used =            8  plain     mixing
     Exchange-correlation      = SLA PW PSX PSC ( 1  4 10  8 0 0)

     celldm(1)=   4.850737  celldm(2)=   0.000000  celldm(3)=   0.000000
     celldm(4)=   0.000000  celldm(5)=   0.000000  celldm(6)=   0.000000

     crystal axes: (cart. coord. in units of alat)
               a(1) = (   1.000000   0.000000   0.000000 )  
               a(2) = (   0.500000   0.866025   0.000000 )  
               a(3) = (   0.000640   0.000376   7.782340 )  

     reciprocal axes: (cart. coord. in units 2 pi/alat)
               b(1) = (  1.000000 -0.577350 -0.000054 )  
               b(2) = (  0.000000  1.154701 -0.000056 )  
               b(3) = (  0.000000  0.000000  0.128496 )  


     PseudoPot. # 1 for C  read from file:
     .\C.pbesol-n-kjpaw_psl.1.0.0.UPF
     MD5 check sum: f9b2fe17d1f478429498b05d17159f9e
     Pseudo is Projector augmented-wave + core cor, Zval =  4.0
     Generated using "atomic" code by A. Dal Corso v.6.3
     Shape of augmentation charge: PSQ
     Using radial grid of 1073 points,  4 beta functions with: 
                l(1) =   0
                l(2) =   0
                l(3) =   1
                l(4) =   1
     Q(r) pseudized with 0 coefficients 


     PseudoPot. # 2 for F  read from file:
     .\F.pbesol-n-kjpaw_psl.1.0.0.UPF
     MD5 check sum: d939582bcd23f1ece12cfc4fab8d9d36
     Pseudo is Projector augmented-wave + core cor, Zval =  7.0
     Generated using "atomic" code by A. Dal Corso v.6.3
     Shape of augmentation charge: PSQ
     Using radial grid of 1105 points,  4 beta functions with: 
                l(1) =   0
                l(2) =   0
                l(3) =   1
                l(4) =   1
     Q(r) pseudized with 0 coefficients 


     atomic species   valence    mass     pseudopotential
        C              4.00    12.01070     C ( 1.00)
        F              7.00    18.99840     F ( 1.00)

     No symmetry found


                                    s                        frac. trans.

      isym =  1     identity                                     

 cryst.   s( 1) = (     1          0          0      )
                  (     0          1          0      )
                  (     0          0          1      )

 cart.    s( 1) = (  1.0000000  0.0000000  0.0000000 )
                  (  0.0000000  1.0000000  0.0000000 )
                  (  0.0000000  0.0000000  1.0000000 )


   Cartesian axes

     site n.     atom                  positions (alat units)
         1           C   tau(   1) = (   0.0003519   0.0002070   3.9178512  )
         2           C   tau(   2) = (   0.5003526   0.2888824   4.1138039  )
         3           C   tau(   3) = (   1.0003491   0.5775541   4.9151223  )
         4           C   tau(   4) = (   0.5003488   0.2888789   4.7191654  )
         5           F   tau(   5) = (   0.0003452   0.0002019   3.3809522  )
         6           F   tau(   6) = (   1.0003518   0.5775569   5.4520245  )

   Crystallographic axes

     site n.     atom                  positions (cryst. coord.)
         1           C   tau(   1) = (  0.0000192  0.0000206  0.5034284  )
         2           C   tau(   2) = (  0.3333424  0.3333434  0.5286075  )
         3           C   tau(   3) = (  0.6666304  0.6666281  0.6315738  )
         4           C   tau(   4) = (  0.3333076  0.3333056  0.6063941  )
         5           F   tau(   5) = (  0.0000446  0.0000447  0.4344390  )
         6           F   tau(   6) = (  0.6666024  0.6666014  0.7005636  )

     number of k points=    34  Marzari-Vanderbilt smearing, width (Ry)=  0.0200
                       cart. coord. in units 2pi/alat
        k(    1) = (   0.0000000   0.0000000   0.0000000), wk =   0.0312500
        k(    2) = (   0.0000000   0.1443376  -0.0000070), wk =   0.0625000
        k(    3) = (   0.0000000   0.2886752  -0.0000139), wk =   0.0625000
        k(    4) = (   0.0000000   0.4330127  -0.0000209), wk =   0.0625000
        k(    5) = (   0.0000000  -0.5773503   0.0000279), wk =   0.0312500
        k(    6) = (   0.1250000  -0.0721688  -0.0000068), wk =   0.0625000
        k(    7) = (   0.1250000   0.0721688  -0.0000138), wk =   0.0625000
        k(    8) = (   0.1250000   0.2165064  -0.0000207), wk =   0.0625000
        k(    9) = (   0.1250000   0.3608439  -0.0000277), wk =   0.0625000
        k(   10) = (   0.1250000  -0.6495191   0.0000211), wk =   0.0625000
        k(   11) = (   0.1250000  -0.5051815   0.0000141), wk =   0.0625000
        k(   12) = (   0.1250000  -0.3608440   0.0000071), wk =   0.0625000
        k(   13) = (   0.1250000  -0.2165064   0.0000002), wk =   0.0625000
        k(   14) = (   0.2500000  -0.1443376  -0.0000136), wk =   0.0625000
        k(   15) = (   0.2500000  -0.0000000  -0.0000206), wk =   0.0625000
        k(   16) = (   0.2500000   0.1443375  -0.0000275), wk =   0.0625000
        k(   17) = (   0.2500000   0.2886751  -0.0000345), wk =   0.0625000
        k(   18) = (   0.2500000  -0.7216879   0.0000143), wk =   0.0625000
        k(   19) = (   0.2500000  -0.5773503   0.0000073), wk =   0.0625000
        k(   20) = (   0.2500000  -0.4330128   0.0000003), wk =   0.0625000
        k(   21) = (   0.2500000  -0.2886752  -0.0000066), wk =   0.0625000
        k(   22) = (   0.3750000  -0.2165064  -0.0000204), wk =   0.0625000
        k(   23) = (   0.3750000  -0.0721688  -0.0000274), wk =   0.0625000
        k(   24) = (   0.3750000   0.0721687  -0.0000343), wk =   0.0625000
        k(   25) = (   0.3750000   0.2165063  -0.0000413), wk =   0.0625000
        k(   26) = (   0.3750000  -0.7938567   0.0000075), wk =   0.0625000
        k(   27) = (   0.3750000  -0.6495192   0.0000005), wk =   0.0625000
        k(   28) = (   0.3750000  -0.5051816  -0.0000065), wk =   0.0625000
        k(   29) = (   0.3750000  -0.3608440  -0.0000134), wk =   0.0625000
        k(   30) = (  -0.5000000   0.2886752   0.0000272), wk =   0.0312500
        k(   31) = (  -0.5000000   0.4330128   0.0000202), wk =   0.0625000
        k(   32) = (  -0.5000000   0.5773504   0.0000133), wk =   0.0625000
        k(   33) = (  -0.5000000   0.7216880   0.0000063), wk =   0.0625000
        k(   34) = (  -0.5000000  -0.2886751   0.0000551), wk =   0.0312500

                       cryst. coord.
        k(    1) = (   0.0000000   0.0000000   0.0000000), wk =   0.0312500
        k(    2) = (   0.0000000   0.1250000   0.0000000), wk =   0.0625000
        k(    3) = (   0.0000000   0.2500000   0.0000000), wk =   0.0625000
        k(    4) = (   0.0000000   0.3750000   0.0000000), wk =   0.0625000
        k(    5) = (   0.0000000  -0.5000000  -0.0000000), wk =   0.0312500
        k(    6) = (   0.1250000   0.0000000   0.0000000), wk =   0.0625000
        k(    7) = (   0.1250000   0.1250000   0.0000000), wk =   0.0625000
        k(    8) = (   0.1250000   0.2500000   0.0000000), wk =   0.0625000
        k(    9) = (   0.1250000   0.3750000   0.0000000), wk =   0.0625000
        k(   10) = (   0.1250000  -0.5000000   0.0000000), wk =   0.0625000
        k(   11) = (   0.1250000  -0.3750000   0.0000000), wk =   0.0625000
        k(   12) = (   0.1250000  -0.2500000   0.0000000), wk =   0.0625000
        k(   13) = (   0.1250000  -0.1250000   0.0000000), wk =   0.0625000
        k(   14) = (   0.2500000   0.0000000   0.0000000), wk =   0.0625000
        k(   15) = (   0.2500000   0.1250000   0.0000000), wk =   0.0625000
        k(   16) = (   0.2500000   0.2500000   0.0000000), wk =   0.0625000
        k(   17) = (   0.2500000   0.3750000   0.0000000), wk =   0.0625000
        k(   18) = (   0.2500000  -0.5000000   0.0000000), wk =   0.0625000
        k(   19) = (   0.2500000  -0.3750000   0.0000000), wk =   0.0625000
        k(   20) = (   0.2500000  -0.2500000   0.0000000), wk =   0.0625000
        k(   21) = (   0.2500000  -0.1250000   0.0000000), wk =   0.0625000
        k(   22) = (   0.3750000   0.0000000   0.0000000), wk =   0.0625000
        k(   23) = (   0.3750000   0.1250000   0.0000000), wk =   0.0625000
        k(   24) = (   0.3750000   0.2500000   0.0000000), wk =   0.0625000
        k(   25) = (   0.3750000   0.3750000   0.0000000), wk =   0.0625000
        k(   26) = (   0.3750000  -0.5000000   0.0000000), wk =   0.0625000
        k(   27) = (   0.3750000  -0.3750000   0.0000000), wk =   0.0625000
        k(   28) = (   0.3750000  -0.2500000   0.0000000), wk =   0.0625000
        k(   29) = (   0.3750000  -0.1250000   0.0000000), wk =   0.0625000
        k(   30) = (  -0.5000000   0.0000000  -0.0000000), wk =   0.0312500
        k(   31) = (  -0.5000000   0.1250000  -0.0000000), wk =   0.0625000
        k(   32) = (  -0.5000000   0.2500000  -0.0000000), wk =   0.0625000
        k(   33) = (  -0.5000000   0.3750000  -0.0000000), wk =   0.0625000
        k(   34) = (  -0.5000000  -0.5000000  -0.0000000), wk =   0.0312500

     Dense  grid:    88889 G-vectors     FFT dimensions: (  30,  30, 240)

     Smooth grid:    31423 G-vectors     FFT dimensions: (  24,  24, 162)

     Dynamical RAM for                 wfc:       1.14 MB

     Dynamical RAM for     wfc (w. buffer):      39.79 MB

     Dynamical RAM for           str. fact:       2.71 MB

     Dynamical RAM for           local pot:       0.00 MB

     Dynamical RAM for          nlocal pot:       2.87 MB

     Dynamical RAM for                qrad:       0.67 MB

     Dynamical RAM for          rho,v,vnew:       9.01 MB

     Dynamical RAM for               rhoin:       3.00 MB

     Dynamical RAM for            rho*nmix:      21.70 MB

     Dynamical RAM for           G-vectors:       5.33 MB

     Dynamical RAM for          h,s,v(r/c):       0.02 MB

     Dynamical RAM for          <psi|beta>:       0.01 MB

     Dynamical RAM for      wfcinit/wfcrot:       2.89 MB

     Dynamical RAM for           addusdens:      63.75 MB

     Dynamical RAM for          addusforce:      80.71 MB

     Dynamical RAM for         addusstress:      67.82 MB

     Estimated static dynamical RAM per process >      97.40 MB

     Estimated max dynamical RAM per process >     178.10 MB

     Check: negative core charge=   -0.000005

     Initial potential from superposition of free atoms

     starting charge   29.99983, renormalised to   30.00000

     negative rho (up, down):  5.058E-04 0.000E+00
     Starting wfcs are   24 randomized atomic wfcs
     Checking if some PAW data can be deallocated... 

     total cpu time spent up to now is        9.6 secs

     Self-consistent Calculation

     iteration #  1     ecut=    45.00 Ry     beta= 0.40
     CG style diagonalization
     ethr =  1.00E-02,  avg # of iterations =  3.0

     negative rho (up, down):  5.004E-04 0.000E+00

     total cpu time spent up to now is       20.0 secs

     total energy              =    -189.91416799 Ry
     Harris-Foulkes estimate   =    -190.04550936 Ry
     estimated scf accuracy    <       0.33862406 Ry

     iteration #  2     ecut=    45.00 Ry     beta= 0.40
     CG style diagonalization
     ethr =  1.13E-03,  avg # of iterations =  3.3

     negative rho (up, down):  5.779E-04 0.000E+00

     total cpu time spent up to now is       29.1 secs

     total energy              =    -189.93725036 Ry
     Harris-Foulkes estimate   =    -189.95852381 Ry
     estimated scf accuracy    <       0.05960201 Ry

     iteration #  3     ecut=    45.00 Ry     beta= 0.40
     CG style diagonalization
     ethr =  1.99E-04,  avg # of iterations =  3.4

     negative rho (up, down):  6.666E-04 0.000E+00

     total cpu time spent up to now is       38.5 secs

     total energy              =    -189.93890294 Ry
     Harris-Foulkes estimate   =    -189.94276604 Ry
     estimated scf accuracy    <       0.01082117 Ry

     iteration #  4     ecut=    45.00 Ry     beta= 0.40
     CG style diagonalization
     ethr =  3.61E-05,  avg # of iterations =  3.9

     negative rho (up, down):  6.616E-04 0.000E+00

     total cpu time spent up to now is       48.1 secs

     total energy              =    -189.94031952 Ry
     Harris-Foulkes estimate   =    -189.94060210 Ry
     estimated scf accuracy    <       0.00107951 Ry

     iteration #  5     ecut=    45.00 Ry     beta= 0.40
     CG style diagonalization
     ethr =  3.60E-06,  avg # of iterations =  4.3

     negative rho (up, down):  6.497E-04 0.000E+00

     total cpu time spent up to now is       58.3 secs

     total energy              =    -189.94053394 Ry
     Harris-Foulkes estimate   =    -189.94058388 Ry
     estimated scf accuracy    <       0.00013241 Ry

     iteration #  6     ecut=    45.00 Ry     beta= 0.40
     CG style diagonalization
     ethr =  4.41E-07,  avg # of iterations =  3.9

     negative rho (up, down):  6.437E-04 0.000E+00

     total cpu time spent up to now is       67.8 secs

     total energy              =    -189.94056389 Ry
     Harris-Foulkes estimate   =    -189.94057781 Ry
     estimated scf accuracy    <       0.00004203 Ry

     iteration #  7     ecut=    45.00 Ry     beta= 0.40
     CG style diagonalization
     ethr =  1.40E-07,  avg # of iterations =  3.5

     negative rho (up, down):  6.411E-04 0.000E+00

     total cpu time spent up to now is       76.3 secs

     total energy              =    -189.94057309 Ry
     Harris-Foulkes estimate   =    -189.94057337 Ry
     estimated scf accuracy    <       0.00000123 Ry

     iteration #  8     ecut=    45.00 Ry     beta= 0.40
     CG style diagonalization
     ethr =  4.09E-09,  avg # of iterations =  4.2

     negative rho (up, down):  6.398E-04 0.000E+00

     total cpu time spent up to now is       86.5 secs

     total energy              =    -189.94057374 Ry
     Harris-Foulkes estimate   =    -189.94057379 Ry
     estimated scf accuracy    <       0.00000018 Ry

     iteration #  9     ecut=    45.00 Ry     beta= 0.40
     CG style diagonalization
     ethr =  5.96E-10,  avg # of iterations =  3.6

     negative rho (up, down):  6.396E-04 0.000E+00

     total cpu time spent up to now is       95.4 secs

     total energy              =    -189.94057379 Ry
     Harris-Foulkes estimate   =    -189.94057380 Ry
     estimated scf accuracy    <       0.00000003 Ry

     iteration # 10     ecut=    45.00 Ry     beta= 0.40
     CG style diagonalization
     ethr =  1.08E-10,  avg # of iterations =  3.9

     negative rho (up, down):  6.396E-04 0.000E+00

     total cpu time spent up to now is      104.3 secs

     total energy              =    -189.94057379 Ry
     Harris-Foulkes estimate   =    -189.94057381 Ry
     estimated scf accuracy    <       0.00000004 Ry

     iteration # 11     ecut=    45.00 Ry     beta= 0.40
     CG style diagonalization
     ethr =  1.08E-10,  avg # of iterations =  3.3

     negative rho (up, down):  6.398E-04 0.000E+00

     total cpu time spent up to now is      111.2 secs

     End of self-consistent calculation

          k = 0.0000 0.0000 0.0000 (  3897 PWs)   bands (ev):

   -27.2860 -27.2382 -21.4630 -18.0388 -12.1196  -9.3980  -6.2229  -5.8040
    -5.8040  -5.5416  -5.5416  -3.2694  -3.2694  -2.0118  -2.0118   1.9641
     4.3215   4.6323   4.6324

     occupation numbers 
     1.0000   1.0000   1.0000   1.0000   1.0000   1.0000   1.0000   1.0000
     1.0000   1.0000   1.0000   1.0000   1.0000   1.0000   1.0000   0.0000
     0.0000   0.0000   0.0000

          k = 0.0000 0.1443-0.0000 (  3891 PWs)   bands (ev):

   -27.1494 -27.1081 -21.1351 -17.7600 -11.9154  -9.3496  -7.1016  -6.6011
    -6.2168  -5.9723  -5.7712  -4.0708  -3.6147  -3.0721  -2.3901   2.5891
     4.1314   5.4391   5.4910

     occupation numbers 
     1.0000   1.0000   1.0000   1.0000   1.0000   1.0000   1.0000   1.0000
     1.0000   1.0000   1.0000   1.0000   1.0000   1.0000   1.0000   0.0000
     0.0000   0.0000   0.0000

          k = 0.0000 0.2887-0.0000 (  3913 PWs)   bands (ev):

   -26.8054 -26.7795 -20.1563 -16.9339 -11.4518  -9.8801  -9.2169  -8.4142
    -7.1227  -6.8310  -6.3478  -5.0409  -4.6197  -4.1151  -3.0730   2.8485
     4.1741   5.7854   7.1108

     occupation numbers 
     1.0000   1.0000   1.0000   1.0000   1.0000   1.0000   1.0000   1.0000
     1.0000   1.0000   1.0000   1.0000   1.0000   1.0000   1.0000   0.0000
     0.0000   0.0000   0.0000

          k = 0.0000 0.4330-0.0000 (  3937 PWs)   bands (ev):

   -26.4383 -26.4275 -18.5637 -15.6165 -13.1018 -11.3910 -10.2258  -8.9785
    -7.9019  -7.6066  -6.9124  -6.3132  -5.0855  -4.4450  -3.5508   2.6442
     4.3708   5.2293   7.2806

     occupation numbers 
     1.0000   1.0000   1.0000   1.0000   1.0000   1.0000   1.0000   1.0000
     1.0000   1.0000   1.0000   1.0000   1.0000   1.0000   1.0000   0.0000
     0.0000   0.0000   0.0000

          k = 0.0000-0.5774 0.0000 (  3930 PWs)   bands (ev):

   -26.2776 -26.2749 -16.9869 -15.4014 -13.9208 -13.1914  -9.8108  -9.2863
    -8.1932  -7.8075  -7.1378  -6.8120  -5.2563  -4.5605  -3.7130   2.7264
     3.9445   4.9719   7.8534

     occupation numbers 
     1.0000   1.0000   1.0000   1.0000   1.0000   1.0000   1.0000   1.0000
     1.0000   1.0000   1.0000   1.0000   1.0000   1.0000   1.0000   0.0000
     0.0000   0.0000   0.0000

          k = 0.1250-0.0722-0.0000 (  3891 PWs)   bands (ev):

   -27.1494 -27.1081 -21.1351 -17.7600 -11.9154  -9.3496  -7.1016  -6.6011
    -6.2168  -5.9723  -5.7712  -4.0708  -3.6147  -3.0721  -2.3901   2.5891
     4.1313   5.4391   5.4911

     occupation numbers 
     1.0000   1.0000   1.0000   1.0000   1.0000   1.0000   1.0000   1.0000
     1.0000   1.0000   1.0000   1.0000   1.0000   1.0000   1.0000   0.0000
     0.0000   0.0000   0.0000

          k = 0.1250 0.0722-0.0000 (  3891 PWs)   bands (ev):

   -27.1494 -27.1081 -21.1351 -17.7600 -11.9154  -9.3496  -7.1016  -6.6011
    -6.2169  -5.9723  -5.7712  -4.0708  -3.6147  -3.0721  -2.3901   2.5891
     4.1314   5.4391   5.4910

     occupation numbers 
     1.0000   1.0000   1.0000   1.0000   1.0000   1.0000   1.0000   1.0000
     1.0000   1.0000   1.0000   1.0000   1.0000   1.0000   1.0000   0.0000
     0.0000   0.0000   0.0000

          k = 0.1250 0.2165-0.0000 (  3911 PWs)   bands (ev):

   -26.9087 -26.8783 -20.4814 -17.2070 -11.5624  -9.3799  -8.5356  -7.8054
    -7.3492  -6.8017  -6.0337  -4.7174  -4.4254  -3.7258  -3.3167   3.4555
     4.3325   5.8279   6.5859

     occupation numbers 
     1.0000   1.0000   1.0000   1.0000   1.0000   1.0000   1.0000   1.0000
     1.0000   1.0000   1.0000   1.0000   1.0000   1.0000   1.0000   0.0000
     0.0000   0.0000   0.0000

          k = 0.1250 0.3608-0.0000 (  3931 PWs)   bands (ev):

   -26.5505 -26.5348 -19.1890 -16.1237 -11.7322 -10.6452  -9.9922  -8.8185
    -8.4905  -7.7796  -6.8367  -5.8339  -4.9275  -4.4472  -3.9598   3.8706
     4.7858   6.5505   7.0714

     occupation numbers 
     1.0000   1.0000   1.0000   1.0000   1.0000   1.0000   1.0000   1.0000
     1.0000   1.0000   1.0000   1.0000   1.0000   1.0000   1.0000   0.0000
     0.0000   0.0000   0.0000

          k = 0.1250-0.6495 0.0000 (  3937 PWs)   bands (ev):

   -26.2827 -26.2779 -17.3825 -14.8164 -14.0017 -12.3477  -9.9033  -9.3688
    -8.9702  -7.9849  -7.6600  -6.5226  -5.4480  -4.6119  -4.2496   3.9834
     4.6632   6.1927   7.4238

     occupation numbers 
     1.0000   1.0000   1.0000   1.0000   1.0000   1.0000   1.0000   1.0000
     1.0000   1.0000   1.0000   1.0000   1.0000   1.0000   1.0000   0.0000
     0.0000   0.0000   0.0000

          k = 0.1250-0.5052 0.0000 (  3937 PWs)   bands (ev):

   -26.2827 -26.2779 -17.3825 -14.8164 -14.0017 -12.3477  -9.9033  -9.3688
    -8.9702  -7.9849  -7.6600  -6.5226  -5.4480  -4.6119  -4.2496   3.9834
     4.6632   6.1927   7.4239

     occupation numbers 
     1.0000   1.0000   1.0000   1.0000   1.0000   1.0000   1.0000   1.0000
     1.0000   1.0000   1.0000   1.0000   1.0000   1.0000   1.0000   0.0000
     0.0000   0.0000   0.0000

          k = 0.1250-0.3608 0.0000 (  3932 PWs)   bands (ev):

   -26.5505 -26.5348 -19.1890 -16.1237 -11.7322 -10.6452  -9.9922  -8.8185
    -8.4905  -7.7796  -6.8367  -5.8339  -4.9275  -4.4472  -3.9598   3.8707
     4.7858   6.5506   7.0712

     occupation numbers 
     1.0000   1.0000   1.0000   1.0000   1.0000   1.0000   1.0000   1.0000
     1.0000   1.0000   1.0000   1.0000   1.0000   1.0000   1.0000   0.0000
     0.0000   0.0000   0.0000

          k = 0.1250-0.2165 0.0000 (  3911 PWs)   bands (ev):

   -26.9087 -26.8783 -20.4814 -17.2070 -11.5624  -9.3799  -8.5356  -7.8054
    -7.3492  -6.8017  -6.0337  -4.7174  -4.4254  -3.7258  -3.3167   3.4556
     4.3325   5.8279   6.5882

     occupation numbers 
     1.0000   1.0000   1.0000   1.0000   1.0000   1.0000   1.0000   1.0000
     1.0000   1.0000   1.0000   1.0000   1.0000   1.0000   1.0000   0.0000
     0.0000   0.0000   0.0000

          k = 0.2500-0.1443-0.0000 (  3913 PWs)   bands (ev):

   -26.8054 -26.7795 -20.1563 -16.9339 -11.4518  -9.8801  -9.2169  -8.4142
    -7.1227  -6.8311  -6.3478  -5.0409  -4.6197  -4.1151  -3.0730   2.8486
     4.1741   5.7854   7.1108

     occupation numbers 
     1.0000   1.0000   1.0000   1.0000   1.0000   1.0000   1.0000   1.0000
     1.0000   1.0000   1.0000   1.0000   1.0000   1.0000   1.0000   0.0000
     0.0000   0.0000   0.0000

          k = 0.2500-0.0000-0.0000 (  3911 PWs)   bands (ev):

   -26.9087 -26.8783 -20.4814 -17.2070 -11.5624  -9.3799  -8.5356  -7.8054
    -7.3492  -6.8017  -6.0337  -4.7174  -4.4254  -3.7258  -3.3167   3.4555
     4.3325   5.8279   6.5863

     occupation numbers 
     1.0000   1.0000   1.0000   1.0000   1.0000   1.0000   1.0000   1.0000
     1.0000   1.0000   1.0000   1.0000   1.0000   1.0000   1.0000   0.0000
     0.0000   0.0000   0.0000

          k = 0.2500 0.1443-0.0000 (  3913 PWs)   bands (ev):

   -26.8054 -26.7795 -20.1563 -16.9339 -11.4518  -9.8801  -9.2168  -8.4142
    -7.1227  -6.8311  -6.3478  -5.0409  -4.6197  -4.1151  -3.0730   2.8485
     4.1741   5.7854   7.1108

     occupation numbers 
     1.0000   1.0000   1.0000   1.0000   1.0000   1.0000   1.0000   1.0000
     1.0000   1.0000   1.0000   1.0000   1.0000   1.0000   1.0000   0.0000
     0.0000   0.0000   0.0000

          k = 0.2500 0.2887-0.0000 (  3931 PWs)   bands (ev):

   -26.5505 -26.5348 -19.1890 -16.1237 -11.7322 -10.6452  -9.9922  -8.8185
    -8.4905  -7.7796  -6.8367  -5.8339  -4.9275  -4.4472  -3.9598   3.8706
     4.7857   6.5505   7.0713

     occupation numbers 
     1.0000   1.0000   1.0000   1.0000   1.0000   1.0000   1.0000   1.0000
     1.0000   1.0000   1.0000   1.0000   1.0000   1.0000   1.0000   0.0000
     0.0000   0.0000   0.0000

          k = 0.2500-0.7217 0.0000 (  3924 PWs)   bands (ev):

   -26.2875 -26.2812 -17.6338 -14.8341 -12.9370 -11.8925 -10.0321  -9.9495
    -9.5512  -8.5109  -7.6244  -6.3192  -5.3400  -5.0786  -4.5728   4.6142
     5.8945   6.7391   8.8090

     occupation numbers 
     1.0000   1.0000   1.0000   1.0000   1.0000   1.0000   1.0000   1.0000
     1.0000   1.0000   1.0000   1.0000   1.0000   1.0000   1.0000   0.0000
     0.0000   0.0000   0.0000

          k = 0.2500-0.5774 0.0000 (  3925 PWs)   bands (ev):

   -26.1754 -26.1740 -16.1650 -14.5385 -13.2495 -13.1324 -11.0561 -10.3047
    -9.0516  -8.6370  -8.2006  -6.2432  -5.8674  -5.3095  -4.6584   4.7109
     5.6707   7.9205   8.0221

     occupation numbers 
     1.0000   1.0000   1.0000   1.0000   1.0000   1.0000   1.0000   1.0000
     1.0000   1.0000   1.0000   1.0000   1.0000   1.0000   1.0000   0.0000
     0.0000   0.0000   0.0000

          k = 0.2500-0.4330 0.0000 (  3923 PWs)   bands (ev):

   -26.2875 -26.2812 -17.6338 -14.8341 -12.9370 -11.8926 -10.0321  -9.9495
    -9.5513  -8.5109  -7.6244  -6.3192  -5.3400  -5.0786  -4.5728   4.6142
     5.8944   6.7390   8.8089

     occupation numbers 
     1.0000   1.0000   1.0000   1.0000   1.0000   1.0000   1.0000   1.0000
     1.0000   1.0000   1.0000   1.0000   1.0000   1.0000   1.0000   0.0000
     0.0000   0.0000   0.0000

          k = 0.2500-0.2887-0.0000 (  3932 PWs)   bands (ev):

   -26.5505 -26.5348 -19.1890 -16.1237 -11.7322 -10.6452  -9.9922  -8.8185
    -8.4905  -7.7796  -6.8367  -5.8339  -4.9275  -4.4472  -3.9598   3.8707
     4.7858   6.5505   7.0713

     occupation numbers 
     1.0000   1.0000   1.0000   1.0000   1.0000   1.0000   1.0000   1.0000
     1.0000   1.0000   1.0000   1.0000   1.0000   1.0000   1.0000   0.0000
     0.0000   0.0000   0.0000

          k = 0.3750-0.2165-0.0000 (  3937 PWs)   bands (ev):

   -26.4383 -26.4275 -18.5637 -15.6165 -13.1018 -11.3910 -10.2258  -8.9785
    -7.9019  -7.6067  -6.9124  -6.3132  -5.0855  -4.4450  -3.5508   2.6442
     4.3708   5.2293   7.2806

     occupation numbers 
     1.0000   1.0000   1.0000   1.0000   1.0000   1.0000   1.0000   1.0000
     1.0000   1.0000   1.0000   1.0000   1.0000   1.0000   1.0000   0.0000
     0.0000   0.0000   0.0000

          k = 0.3750-0.0722-0.0000 (  3931 PWs)   bands (ev):

   -26.5505 -26.5348 -19.1890 -16.1237 -11.7322 -10.6452  -9.9922  -8.8185
    -8.4905  -7.7796  -6.8367  -5.8339  -4.9275  -4.4472  -3.9598   3.8706
     4.7857   6.5505   7.0712

     occupation numbers 
     1.0000   1.0000   1.0000   1.0000   1.0000   1.0000   1.0000   1.0000
     1.0000   1.0000   1.0000   1.0000   1.0000   1.0000   1.0000   0.0000
     0.0000   0.0000   0.0000

          k = 0.3750 0.0722-0.0000 (  3931 PWs)   bands (ev):

   -26.5505 -26.5348 -19.1890 -16.1237 -11.7322 -10.6452  -9.9922  -8.8185
    -8.4905  -7.7796  -6.8368  -5.8339  -4.9275  -4.4472  -3.9598   3.8706
     4.7857   6.5506   7.0714

     occupation numbers 
     1.0000   1.0000   1.0000   1.0000   1.0000   1.0000   1.0000   1.0000
     1.0000   1.0000   1.0000   1.0000   1.0000   1.0000   1.0000   0.0000
     0.0000   0.0000   0.0000

          k = 0.3750 0.2165-0.0000 (  3937 PWs)   bands (ev):

   -26.4383 -26.4275 -18.5637 -15.6165 -13.1018 -11.3910 -10.2258  -8.9785
    -7.9019  -7.6067  -6.9124  -6.3132  -5.0855  -4.4450  -3.5508   2.6442
     4.3708   5.2293   7.2807

     occupation numbers 
     1.0000   1.0000   1.0000   1.0000   1.0000   1.0000   1.0000   1.0000
     1.0000   1.0000   1.0000   1.0000   1.0000   1.0000   1.0000   0.0000
     0.0000   0.0000   0.0000

          k = 0.3750-0.7939 0.0000 (  3937 PWs)   bands (ev):

   -26.2827 -26.2779 -17.3825 -14.8164 -14.0017 -12.3477  -9.9033  -9.3688
    -8.9702  -7.9849  -7.6600  -6.5226  -5.4480  -4.6119  -4.2496   3.9833
     4.6631   6.1928   7.4240

     occupation numbers 
     1.0000   1.0000   1.0000   1.0000   1.0000   1.0000   1.0000   1.0000
     1.0000   1.0000   1.0000   1.0000   1.0000   1.0000   1.0000   0.0000
     0.0000   0.0000   0.0000

          k = 0.3750-0.6495 0.0000 (  3925 PWs)   bands (ev):

   -26.1754 -26.1740 -16.1650 -14.5386 -13.2495 -13.1324 -11.0561 -10.3048
    -9.0516  -8.6370  -8.2007  -6.2432  -5.8674  -5.3095  -4.6584   4.7109
     5.6708   7.9207   8.0221

     occupation numbers 
     1.0000   1.0000   1.0000   1.0000   1.0000   1.0000   1.0000   1.0000
     1.0000   1.0000   1.0000   1.0000   1.0000   1.0000   1.0000   0.0000
     0.0000   0.0000   0.0000

          k = 0.3750-0.5052-0.0000 (  3925 PWs)   bands (ev):

   -26.1754 -26.1740 -16.1650 -14.5385 -13.2495 -13.1324 -11.0561 -10.3047
    -9.0516  -8.6370  -8.2006  -6.2432  -5.8674  -5.3095  -4.6584   4.7109
     5.6707   7.9205   8.0221

     occupation numbers 
     1.0000   1.0000   1.0000   1.0000   1.0000   1.0000   1.0000   1.0000
     1.0000   1.0000   1.0000   1.0000   1.0000   1.0000   1.0000   0.0000
     0.0000   0.0000   0.0000

          k = 0.3750-0.3608-0.0000 (  3937 PWs)   bands (ev):

   -26.2827 -26.2779 -17.3825 -14.8164 -14.0017 -12.3477  -9.9033  -9.3688
    -8.9702  -7.9849  -7.6600  -6.5226  -5.4480  -4.6119  -4.2496   3.9834
     4.6631   6.1927   7.4239

     occupation numbers 
     1.0000   1.0000   1.0000   1.0000   1.0000   1.0000   1.0000   1.0000
     1.0000   1.0000   1.0000   1.0000   1.0000   1.0000   1.0000   0.0000
     0.0000   0.0000   0.0000

          k =-0.5000 0.2887 0.0000 (  3930 PWs)   bands (ev):

   -26.2776 -26.2749 -16.9869 -15.4014 -13.9208 -13.1914  -9.8108  -9.2863
    -8.1932  -7.8075  -7.1378  -6.8120  -5.2563  -4.5605  -3.7130   2.7264
     3.9445   4.9719   7.8523

     occupation numbers 
     1.0000   1.0000   1.0000   1.0000   1.0000   1.0000   1.0000   1.0000
     1.0000   1.0000   1.0000   1.0000   1.0000   1.0000   1.0000   0.0000
     0.0000   0.0000   0.0000

          k =-0.5000 0.4330 0.0000 (  3937 PWs)   bands (ev):

   -26.2827 -26.2779 -17.3825 -14.8164 -14.0017 -12.3477  -9.9033  -9.3688
    -8.9702  -7.9849  -7.6600  -6.5226  -5.4480  -4.6119  -4.2496   3.9834
     4.6632   6.1927   7.4240

     occupation numbers 
     1.0000   1.0000   1.0000   1.0000   1.0000   1.0000   1.0000   1.0000
     1.0000   1.0000   1.0000   1.0000   1.0000   1.0000   1.0000   0.0000
     0.0000   0.0000   0.0000

          k =-0.5000 0.5774 0.0000 (  3924 PWs)   bands (ev):

   -26.2875 -26.2812 -17.6338 -14.8341 -12.9371 -11.8925 -10.0321  -9.9495
    -9.5512  -8.5109  -7.6244  -6.3192  -5.3400  -5.0786  -4.5728   4.6141
     5.8944   6.7391   8.8093

     occupation numbers 
     1.0000   1.0000   1.0000   1.0000   1.0000   1.0000   1.0000   1.0000
     1.0000   1.0000   1.0000   1.0000   1.0000   1.0000   1.0000   0.0000
     0.0000   0.0000   0.0000

          k =-0.5000 0.7217 0.0000 (  3937 PWs)   bands (ev):

   -26.2827 -26.2779 -17.3825 -14.8164 -14.0017 -12.3477  -9.9033  -9.3688
    -8.9702  -7.9849  -7.6600  -6.5226  -5.4480  -4.6119  -4.2496   3.9833
     4.6631   6.1928   7.4240

     occupation numbers 
     1.0000   1.0000   1.0000   1.0000   1.0000   1.0000   1.0000   1.0000
     1.0000   1.0000   1.0000   1.0000   1.0000   1.0000   1.0000   0.0000
     0.0000   0.0000   0.0000

          k =-0.5000-0.2887 0.0001 (  3930 PWs)   bands (ev):

   -26.2776 -26.2749 -16.9869 -15.4014 -13.9208 -13.1915  -9.8107  -9.2863
    -8.1932  -7.8076  -7.1378  -6.8120  -5.2563  -4.5605  -3.7130   2.7264
     3.9445   4.9720   7.8541

     occupation numbers 
     1.0000   1.0000   1.0000   1.0000   1.0000   1.0000   1.0000   1.0000
     1.0000   1.0000   1.0000   1.0000   1.0000   1.0000   1.0000   0.0000
     0.0000   0.0000   0.0000

     the Fermi energy is     0.0576 ev

!    total energy              =    -189.94057380 Ry
     Harris-Foulkes estimate   =    -189.94057380 Ry
     estimated scf accuracy    <          9.0E-10 Ry

     total all-electron energy =      -701.912688 Ry

     The total energy is the sum of the following terms:

     one-electron contribution =   -1506.89710005 Ry
     hartree contribution      =     763.09663025 Ry
     xc contribution           =     -37.16260012 Ry
     ewald contribution        =     636.01910727 Ry
     one-center paw contrib.   =     -44.99661113 Ry
      -> PAW hartree energy AE =     117.52128403 Ry
      -> PAW hartree energy PS =    -117.44159066 Ry
      -> PAW xc energy AE      =     -80.45725237 Ry
      -> PAW xc energy PS      =      35.38094787 Ry
      -> total E_H with PAW    =     763.17632361 Ry
      -> total E_XC with PAW   =     -82.23890462 Ry
     smearing contrib. (-TS)   =       0.00000000 Ry

     convergence has been achieved in  11 iterations

     negative rho (up, down):  6.398E-04 0.000E+00

     Forces acting on atoms (cartesian axes, Ry/au):

     atom    1 type  1   force =    -0.00000137   -0.00000133   -0.00915472
     atom    2 type  1   force =    -0.00000354   -0.00000259    0.00040083
     atom    3 type  1   force =     0.00000081    0.00000101    0.00917354
     atom    4 type  1   force =     0.00000243    0.00000199   -0.00044038
     atom    5 type  2   force =     0.00000272    0.00000204    0.01750832
     atom    6 type  2   force =    -0.00000104   -0.00000112   -0.01748760
     The non-local contrib.  to forces
     atom    1 type  1   force =    -0.00000444   -0.00000398   -0.40562177
     atom    2 type  1   force =    -0.00000610   -0.00000448    0.08394230
     atom    3 type  1   force =     0.00000249    0.00000292    0.40563376
     atom    4 type  1   force =     0.00000359    0.00000306   -0.08397277
     atom    5 type  2   force =     0.00004232    0.00003137    3.17139179
     atom    6 type  2   force =    -0.00001664   -0.00001712   -3.17142625
     The ionic contribution  to forces
     atom    1 type  1   force =     0.00006601    0.00004732  -13.36767802
     atom    2 type  1   force =    -0.00000457    0.00000014   -9.40120984
     atom    3 type  1   force =    -0.00002607   -0.00002490   13.36783775
     atom    4 type  1   force =    -0.00000452   -0.00000517    9.40118888
     atom    5 type  2   force =    -0.00005247   -0.00003943  -66.85280486
     atom    6 type  2   force =     0.00002161    0.00002204   66.85266609
     The local contribution  to forces
     atom    1 type  1   force =    -0.00006277   -0.00004454   13.75569905
     atom    2 type  1   force =     0.00000715    0.00000176    9.31891497
     atom    3 type  1   force =     0.00002421    0.00002292  -13.75593127
     atom    4 type  1   force =     0.00000313    0.00000400   -9.31892705
     atom    5 type  2   force =     0.00001306    0.00001024   63.70911526
     atom    6 type  2   force =    -0.00000566   -0.00000586  -63.70902169
     The core correction contribution to forces
     atom    1 type  1   force =    -0.00000017   -0.00000009    0.00838514
     atom    2 type  1   force =     0.00000007    0.00000004   -0.00130856
     atom    3 type  1   force =     0.00000031    0.00000017   -0.00846635
     atom    4 type  1   force =     0.00000031    0.00000018    0.00116616
     atom    5 type  2   force =    -0.00000013   -0.00000010   -0.01024726
     atom    6 type  2   force =     0.00000002    0.00000004    0.01024624
     The Hubbard contrib.    to forces
     atom    1 type  1   force =     0.00000000    0.00000000    0.00000000
     atom    2 type  1   force =     0.00000000    0.00000000    0.00000000
     atom    3 type  1   force =     0.00000000    0.00000000    0.00000000
     atom    4 type  1   force =     0.00000000    0.00000000    0.00000000
     atom    5 type  2   force =     0.00000000    0.00000000    0.00000000
     atom    6 type  2   force =     0.00000000    0.00000000    0.00000000
     The SCF correction term to forces
     atom    1 type  1   force =     0.00000008   -0.00000001    0.00001870
     atom    2 type  1   force =    -0.00000001   -0.00000001    0.00001977
     atom    3 type  1   force =    -0.00000006   -0.00000005    0.00005745
     atom    4 type  1   force =     0.00000001   -0.00000003    0.00006222
     atom    5 type  2   force =     0.00000002    0.00000000    0.00001121
     atom    6 type  2   force =    -0.00000028   -0.00000017    0.00000584

     Total force =     0.027941     Total SCF correction =     0.000090


     Computing stress (Cartesian axis) and pressure


     negative rho (up, down):  6.398E-04 0.000E+00
          total   stress  (Ry/bohr**3)                   (kbar)     P=  -23.27
  -0.00014796  -0.00000000  -0.00000001        -21.77     -0.00     -0.00
  -0.00000000  -0.00014796  -0.00000001         -0.00    -21.77     -0.00
  -0.00000001  -0.00000001  -0.00017858         -0.00     -0.00    -26.27

     kinetic stress (kbar)   9163.96      0.00     -0.01
                                0.00   9163.96     -0.01
                               -0.01     -0.01   8324.16

     local   stress (kbar)-286809.82      0.01     -0.02
                                0.01-286809.84     -0.02
                               -0.02     -0.02 276372.51

     nonloc. stress (kbar)   3143.00     -0.00     -0.00
                               -0.00   3143.00     -0.00
                               -0.00     -0.00   2879.57

     hartree stress (kbar) 141385.34     -0.00      0.01
                               -0.00 141385.35      0.00
                                0.01      0.00-136841.20

     exc-cor stress (kbar)  -1130.23     -0.00      0.00
                               -0.00  -1130.23      0.00
                                0.00      0.00  -1126.91

     corecor stress (kbar)   -939.38      0.00      0.00
                                0.00   -939.38      0.00
                                0.00      0.00   -931.71

     ewald   stress (kbar) 135165.36     -0.01      0.03
                               -0.01 135165.37      0.02
                                0.03      0.02-148702.69

     hubbard stress (kbar)      0.00      0.00      0.00
                                0.00      0.00      0.00
                                0.00      0.00      0.00

     london  stress (kbar)      0.00      0.00      0.00
                                0.00      0.00      0.00
                                0.00      0.00      0.00

     DFT-D3  stress (kbar)      0.00      0.00      0.00
                                0.00      0.00      0.00
                                0.00      0.00      0.00

     XDM     stress (kbar)      0.00      0.00      0.00
                                0.00      0.00      0.00
                                0.00      0.00      0.00

     dft-nl  stress (kbar)      0.00      0.00      0.00
                                0.00      0.00      0.00
                                0.00      0.00      0.00

     TS-vdW  stress (kbar)      0.00      0.00      0.00
                                0.00      0.00      0.00
                                0.00      0.00      0.00

     3D-RISM stress (kbar)      0.00      0.00      0.00
                                0.00      0.00      0.00
                                0.00      0.00      0.00



     Writing output data file pwscf.save\

     init_run     :     11.53s CPU      7.31s WALL (       1 calls)
     electrons    :    140.86s CPU    101.60s WALL (       1 calls)
     forces       :      7.55s CPU      1.36s WALL (       1 calls)
     stress       :     18.78s CPU      4.11s WALL (       1 calls)

     Called by init_run:
     wfcinit      :      2.47s CPU      2.22s WALL (       1 calls)
     wfcinit:atom :      0.16s CPU      0.05s WALL (      34 calls)
     wfcinit:wfcr :      2.08s CPU      1.79s WALL (      34 calls)
     potinit      :      3.94s CPU      0.70s WALL (       1 calls)
     hinit0       :      5.00s CPU      4.21s WALL (       1 calls)

     Called by electrons:
     c_bands      :    121.77s CPU     87.77s WALL (      11 calls)
     sum_band     :     13.44s CPU      9.73s WALL (      11 calls)
     v_of_rho     :      1.73s CPU      0.98s WALL (      12 calls)
     v_h          :      0.09s CPU      0.10s WALL (      12 calls)
     v_xc         :      1.94s CPU      1.02s WALL (      14 calls)
     newd         :      1.67s CPU      1.21s WALL (      12 calls)
     PAW_pot      :      2.53s CPU      1.91s WALL (      12 calls)
     mix_rho      :      0.19s CPU      0.23s WALL (      11 calls)

     Called by c_bands:
     init_us_2    :      0.97s CPU      0.64s WALL (     850 calls)
     ccgdiagg     :    103.14s CPU     75.67s WALL (     374 calls)
     wfcrot       :     20.09s CPU     13.26s WALL (     374 calls)

     Called by sum_band:
     sum_band:bec :      0.12s CPU      0.25s WALL (     374 calls)
     addusdens    :      2.03s CPU      1.83s WALL (      11 calls)

     Called by *cgdiagg:
     h_psi        :     87.09s CPU     58.10s WALL (   19981 calls)
     s_psi        :     14.08s CPU     12.20s WALL (   39588 calls)
     cdiaghg      :      0.03s CPU      0.09s WALL (     374 calls)

     Called by h_psi:
     h_psi:pot    :     84.47s CPU     55.24s WALL (   19981 calls)
     h_psi:calbec :     10.09s CPU      8.04s WALL (   19981 calls)
     vloc_psi     :     65.64s CPU     41.79s WALL (   19981 calls)
     add_vuspsi   :      8.61s CPU      5.31s WALL (   19981 calls)
     hs_1psi      :     80.11s CPU     55.41s WALL (   19607 calls)
     s_1psi       :     15.86s CPU     13.03s WALL (   19607 calls)

     General routines
     calbec       :     17.50s CPU     13.44s WALL (   40132 calls)
     fft          :      0.19s CPU      0.17s WALL (     179 calls)
     ffts         :      0.03s CPU      0.01s WALL (      23 calls)
     fftw         :     46.06s CPU     27.52s WALL (   60872 calls)
     interpolate  :      0.05s CPU      0.04s WALL (      12 calls)

     Parallel routines

     PAW routines
     PAW_pot      :      2.53s CPU      1.91s WALL (      12 calls)

     PWSCF        :   2m59.97s CPU   1m56.89s WALL


   This run was terminated on:  17: 9:32  19Nov2024            

=------------------------------------------------------------------------------=
   JOB DONE.
=------------------------------------------------------------------------------=
