
     Program PWSCF v.6.4.1 starts on 19Nov2024 at 17: 5:12 

     This program is part of the open-source Quantum ESPRESSO suite
     for quantum simulation of materials; please cite
         "P. Giannozzi et al., J. Phys.:Condens. Matter 21 395502 (2009);
         "P. Giannozzi et al., J. Phys.:Condens. Matter 29 465901 (2017);
          URL http://www.quantum-espresso.org", 
     in publications or presentations arising from this work. More details at
     http://www.quantum-espresso.org/quote

     Parallel version (MPI & OpenMP), running on      12 processor cores
     Number of MPI processes:                 1
     Threads/MPI process:                    12

     MPI processes distributed on     1 nodes
     Waiting for input...
     Reading input from standard input

     Current dimensions of program PWSCF are:
     Max number of different atomic species (ntypx) = 10
     Max number of k-points (npk) =  40000
     Max angular momentum in pseudopotentials (lmaxx) =  3
               file C.pbesol-n-kjpaw_psl.1.0.0.UPF: wavefunction(s)  2S 2P renormalized
               file F.pbesol-n-kjpaw_psl.1.0.0.UPF: wavefunction(s)  2S 2P renormalized

     Subspace diagonalization in iterative solution of the eigenvalue problem:
     a serial algorithm will be used


     G-vector sticks info
     --------------------
     sticks:   dense  smooth     PW     G-vecs:    dense   smooth      PW
     Sum         583     295     97                88889    31423    6069



     bravais-lattice index     =            0
     lattice parameter (alat)  =       4.8507  a.u.
     unit-cell volume          =     769.2439 (a.u.)^3
     number of atoms/cell      =            6
     number of atomic types    =            2
     number of electrons       =        30.00
     number of Kohn-Sham states=           19
     kinetic-energy cutoff     =      45.0000  Ry
     charge density cutoff     =     360.0000  Ry
     convergence threshold     =      1.2E-09
     mixing beta               =       0.4000
     number of iterations used =            8  plain     mixing
     Exchange-correlation      = SLA PW PSX PSC ( 1  4 10  8 0 0)

     celldm(1)=   4.850737  celldm(2)=   0.000000  celldm(3)=   0.000000
     celldm(4)=   0.000000  celldm(5)=   0.000000  celldm(6)=   0.000000

     crystal axes: (cart. coord. in units of alat)
               a(1) = (   1.000000   0.000000   0.000000 )  
               a(2) = (   0.500000   0.866025   0.000000 )  
               a(3) = (   0.000640   0.000376   7.782340 )  

     reciprocal axes: (cart. coord. in units 2 pi/alat)
               b(1) = (  1.000000 -0.577350 -0.000054 )  
               b(2) = (  0.000000  1.154701 -0.000056 )  
               b(3) = (  0.000000  0.000000  0.128496 )  


     PseudoPot. # 1 for C  read from file:
     .\C.pbesol-n-kjpaw_psl.1.0.0.UPF
     MD5 check sum: f9b2fe17d1f478429498b05d17159f9e
     Pseudo is Projector augmented-wave + core cor, Zval =  4.0
     Generated using "atomic" code by A. Dal Corso v.6.3
     Shape of augmentation charge: PSQ
     Using radial grid of 1073 points,  4 beta functions with: 
                l(1) =   0
                l(2) =   0
                l(3) =   1
                l(4) =   1
     Q(r) pseudized with 0 coefficients 


     PseudoPot. # 2 for F  read from file:
     .\F.pbesol-n-kjpaw_psl.1.0.0.UPF
     MD5 check sum: d939582bcd23f1ece12cfc4fab8d9d36
     Pseudo is Projector augmented-wave + core cor, Zval =  7.0
     Generated using "atomic" code by A. Dal Corso v.6.3
     Shape of augmentation charge: PSQ
     Using radial grid of 1105 points,  4 beta functions with: 
                l(1) =   0
                l(2) =   0
                l(3) =   1
                l(4) =   1
     Q(r) pseudized with 0 coefficients 


     atomic species   valence    mass     pseudopotential
        C              4.00    12.01070     C ( 1.00)
        F              7.00    18.99840     F ( 1.00)

     No symmetry found


                                    s                        frac. trans.

      isym =  1     identity                                     

 cryst.   s( 1) = (     1          0          0      )
                  (     0          1          0      )
                  (     0          0          1      )

 cart.    s( 1) = (  1.0000000  0.0000000  0.0000000 )
                  (  0.0000000  1.0000000  0.0000000 )
                  (  0.0000000  0.0000000  1.0000000 )


   Cartesian axes

     site n.     atom                  positions (alat units)
         1           C   tau(   1) = (   0.0003519   0.0002070   3.9178512  )
         2           C   tau(   2) = (   0.5003526   0.2888824   4.1138039  )
         3           C   tau(   3) = (   1.0003491   0.5775541   4.9151223  )
         4           C   tau(   4) = (   0.5003488   0.2888789   4.7191654  )
         5           F   tau(   5) = (   0.0003452   0.0002019   3.3809522  )
         6           F   tau(   6) = (   1.0003518   0.5775569   5.4520245  )

   Crystallographic axes

     site n.     atom                  positions (cryst. coord.)
         1           C   tau(   1) = (  0.0000192  0.0000206  0.5034284  )
         2           C   tau(   2) = (  0.3333424  0.3333434  0.5286075  )
         3           C   tau(   3) = (  0.6666304  0.6666281  0.6315738  )
         4           C   tau(   4) = (  0.3333076  0.3333056  0.6063941  )
         5           F   tau(   5) = (  0.0000446  0.0000447  0.4344390  )
         6           F   tau(   6) = (  0.6666024  0.6666014  0.7005636  )

     number of k points=    20  Marzari-Vanderbilt smearing, width (Ry)=  0.0200
                       cart. coord. in units 2pi/alat
        k(    1) = (   0.0000000   0.0000000   0.0000000), wk =   0.0555556
        k(    2) = (   0.0000000   0.1924501  -0.0000093), wk =   0.1111111
        k(    3) = (   0.0000000   0.3849002  -0.0000186), wk =   0.1111111
        k(    4) = (   0.0000000  -0.5773503   0.0000279), wk =   0.0555556
        k(    5) = (   0.1666667  -0.0962251  -0.0000091), wk =   0.1111111
        k(    6) = (   0.1666667   0.0962250  -0.0000184), wk =   0.1111111
        k(    7) = (   0.1666667   0.2886751  -0.0000277), wk =   0.1111111
        k(    8) = (   0.1666667  -0.6735754   0.0000188), wk =   0.1111111
        k(    9) = (   0.1666667  -0.4811253   0.0000095), wk =   0.1111111
        k(   10) = (   0.1666667  -0.2886752   0.0000002), wk =   0.1111111
        k(   11) = (   0.3333333  -0.1924501  -0.0000181), wk =   0.1111111
        k(   12) = (   0.3333333  -0.0000000  -0.0000274), wk =   0.1111111
        k(   13) = (   0.3333333   0.1924501  -0.0000367), wk =   0.1111111
        k(   14) = (   0.3333333  -0.7698005   0.0000097), wk =   0.1111111
        k(   15) = (   0.3333333  -0.5773504   0.0000004), wk =   0.1111111
        k(   16) = (   0.3333333  -0.3849003  -0.0000088), wk =   0.1111111
        k(   17) = (  -0.5000000   0.2886752   0.0000272), wk =   0.0555556
        k(   18) = (  -0.5000000   0.4811253   0.0000179), wk =   0.1111111
        k(   19) = (  -0.5000000   0.6735754   0.0000086), wk =   0.1111111
        k(   20) = (  -0.5000000  -0.2886751   0.0000551), wk =   0.0555556

                       cryst. coord.
        k(    1) = (   0.0000000   0.0000000   0.0000000), wk =   0.0555556
        k(    2) = (   0.0000000   0.1666667   0.0000000), wk =   0.1111111
        k(    3) = (   0.0000000   0.3333333   0.0000000), wk =   0.1111111
        k(    4) = (   0.0000000  -0.5000000  -0.0000000), wk =   0.0555556
        k(    5) = (   0.1666667   0.0000000   0.0000000), wk =   0.1111111
        k(    6) = (   0.1666667   0.1666667   0.0000000), wk =   0.1111111
        k(    7) = (   0.1666667   0.3333333   0.0000000), wk =   0.1111111
        k(    8) = (   0.1666667  -0.5000000   0.0000000), wk =   0.1111111
        k(    9) = (   0.1666667  -0.3333333   0.0000000), wk =   0.1111111
        k(   10) = (   0.1666667  -0.1666667   0.0000000), wk =   0.1111111
        k(   11) = (   0.3333333   0.0000000   0.0000000), wk =   0.1111111
        k(   12) = (   0.3333333   0.1666667   0.0000000), wk =   0.1111111
        k(   13) = (   0.3333333   0.3333333   0.0000000), wk =   0.1111111
        k(   14) = (   0.3333333  -0.5000000   0.0000000), wk =   0.1111111
        k(   15) = (   0.3333333  -0.3333333   0.0000000), wk =   0.1111111
        k(   16) = (   0.3333333  -0.1666667   0.0000000), wk =   0.1111111
        k(   17) = (  -0.5000000   0.0000000  -0.0000000), wk =   0.0555556
        k(   18) = (  -0.5000000   0.1666667  -0.0000000), wk =   0.1111111
        k(   19) = (  -0.5000000   0.3333333  -0.0000000), wk =   0.1111111
        k(   20) = (  -0.5000000  -0.5000000  -0.0000000), wk =   0.0555556

     Dense  grid:    88889 G-vectors     FFT dimensions: (  30,  30, 240)

     Smooth grid:    31423 G-vectors     FFT dimensions: (  24,  24, 162)

     Dynamical RAM for                 wfc:       1.14 MB

     Dynamical RAM for     wfc (w. buffer):      23.87 MB

     Dynamical RAM for           str. fact:       2.71 MB

     Dynamical RAM for           local pot:       0.00 MB

     Dynamical RAM for          nlocal pot:       2.87 MB

     Dynamical RAM for                qrad:       0.67 MB

     Dynamical RAM for          rho,v,vnew:       9.01 MB

     Dynamical RAM for               rhoin:       3.00 MB

     Dynamical RAM for            rho*nmix:      21.70 MB

     Dynamical RAM for           G-vectors:       5.33 MB

     Dynamical RAM for          h,s,v(r/c):       0.02 MB

     Dynamical RAM for          <psi|beta>:       0.01 MB

     Dynamical RAM for      wfcinit/wfcrot:       2.89 MB

     Dynamical RAM for           addusdens:      63.75 MB

     Dynamical RAM for          addusforce:      80.71 MB

     Dynamical RAM for         addusstress:      67.82 MB

     Estimated static dynamical RAM per process >      81.48 MB

     Estimated max dynamical RAM per process >     162.19 MB

     Check: negative core charge=   -0.000005

     Initial potential from superposition of free atoms

     starting charge   29.99983, renormalised to   30.00000

     negative rho (up, down):  5.058E-04 0.000E+00
     Starting wfcs are   24 randomized atomic wfcs
     Checking if some PAW data can be deallocated... 

     total cpu time spent up to now is        7.8 secs

     Self-consistent Calculation

     iteration #  1     ecut=    45.00 Ry     beta= 0.40
     CG style diagonalization
     ethr =  1.00E-02,  avg # of iterations =  3.0

     negative rho (up, down):  4.958E-04 0.000E+00

     total cpu time spent up to now is       12.6 secs

     total energy              =    -189.91334959 Ry
     Harris-Foulkes estimate   =    -190.04484370 Ry
     estimated scf accuracy    <       0.33891973 Ry

     iteration #  2     ecut=    45.00 Ry     beta= 0.40
     CG style diagonalization
     ethr =  1.13E-03,  avg # of iterations =  3.3

     negative rho (up, down):  5.749E-04 0.000E+00

     total cpu time spent up to now is       16.9 secs

     total energy              =    -189.93656421 Ry
     Harris-Foulkes estimate   =    -189.95783470 Ry
     estimated scf accuracy    <       0.05963519 Ry

     iteration #  3     ecut=    45.00 Ry     beta= 0.40
     CG style diagonalization
     ethr =  1.99E-04,  avg # of iterations =  3.4

     negative rho (up, down):  6.622E-04 0.000E+00

     total cpu time spent up to now is       21.1 secs

     total energy              =    -189.93823649 Ry
     Harris-Foulkes estimate   =    -189.94209926 Ry
     estimated scf accuracy    <       0.01081530 Ry

     iteration #  4     ecut=    45.00 Ry     beta= 0.40
     CG style diagonalization
     ethr =  3.61E-05,  avg # of iterations =  4.0

     negative rho (up, down):  6.613E-04 0.000E+00

     total cpu time spent up to now is       25.8 secs

     total energy              =    -189.93963701 Ry
     Harris-Foulkes estimate   =    -189.93992792 Ry
     estimated scf accuracy    <       0.00111191 Ry

     iteration #  5     ecut=    45.00 Ry     beta= 0.40
     CG style diagonalization
     c_bands:  1 eigenvalues not converged
     c_bands:  1 eigenvalues not converged
     c_bands:  1 eigenvalues not converged
     c_bands:  1 eigenvalues not converged
     c_bands:  1 eigenvalues not converged
     ethr =  3.71E-06,  avg # of iterations =  4.4

     negative rho (up, down):  6.481E-04 0.000E+00

     total cpu time spent up to now is       31.1 secs

     total energy              =    -189.93985224 Ry
     Harris-Foulkes estimate   =    -189.93990479 Ry
     estimated scf accuracy    <       0.00013329 Ry

     iteration #  6     ecut=    45.00 Ry     beta= 0.40
     CG style diagonalization
     c_bands:  1 eigenvalues not converged
     c_bands:  1 eigenvalues not converged
     ethr =  4.44E-07,  avg # of iterations =  4.0

     negative rho (up, down):  6.439E-04 0.000E+00

     total cpu time spent up to now is       35.9 secs

     total energy              =    -189.93988415 Ry
     Harris-Foulkes estimate   =    -189.93989750 Ry
     estimated scf accuracy    <       0.00004107 Ry

     iteration #  7     ecut=    45.00 Ry     beta= 0.40
     CG style diagonalization
     c_bands:  1 eigenvalues not converged
     ethr =  1.37E-07,  avg # of iterations =  3.6

     negative rho (up, down):  6.408E-04 0.000E+00

     total cpu time spent up to now is       40.1 secs

     total energy              =    -189.93989281 Ry
     Harris-Foulkes estimate   =    -189.93989314 Ry
     estimated scf accuracy    <       0.00000109 Ry

     iteration #  8     ecut=    45.00 Ry     beta= 0.40
     CG style diagonalization
     ethr =  3.62E-09,  avg # of iterations =  4.2

     negative rho (up, down):  6.397E-04 0.000E+00

     total cpu time spent up to now is       45.0 secs

     total energy              =    -189.93989350 Ry
     Harris-Foulkes estimate   =    -189.93989354 Ry
     estimated scf accuracy    <       0.00000020 Ry

     iteration #  9     ecut=    45.00 Ry     beta= 0.40
     CG style diagonalization
     ethr =  6.52E-10,  avg # of iterations =  3.5

     negative rho (up, down):  6.396E-04 0.000E+00

     total cpu time spent up to now is       49.1 secs

     total energy              =    -189.93989354 Ry
     Harris-Foulkes estimate   =    -189.93989355 Ry
     estimated scf accuracy    <       0.00000004 Ry

     iteration # 10     ecut=    45.00 Ry     beta= 0.40
     CG style diagonalization
     ethr =  1.25E-10,  avg # of iterations =  3.6

     negative rho (up, down):  6.396E-04 0.000E+00

     total cpu time spent up to now is       53.4 secs

     total energy              =    -189.93989355 Ry
     Harris-Foulkes estimate   =    -189.93989355 Ry
     estimated scf accuracy    <          9.5E-09 Ry

     iteration # 11     ecut=    45.00 Ry     beta= 0.40
     CG style diagonalization
     ethr =  3.15E-11,  avg # of iterations =  3.1

     negative rho (up, down):  6.397E-04 0.000E+00

     total cpu time spent up to now is       57.1 secs

     total energy              =    -189.93989355 Ry
     Harris-Foulkes estimate   =    -189.93989355 Ry
     estimated scf accuracy    <          2.2E-09 Ry

     iteration # 12     ecut=    45.00 Ry     beta= 0.40
     CG style diagonalization
     ethr =  7.50E-12,  avg # of iterations =  3.5

     negative rho (up, down):  6.399E-04 0.000E+00

     total cpu time spent up to now is       61.1 secs

     End of self-consistent calculation

          k = 0.0000 0.0000 0.0000 (  3897 PWs)   bands (ev):

   -27.2857 -27.2379 -21.4623 -18.0381 -12.1189  -9.3975  -6.2221  -5.8034
    -5.8033  -5.5412  -5.5411  -3.2686  -3.2686  -2.0108  -2.0107   1.9645
     4.3220   4.6334   4.6335

     occupation numbers 
     1.0000   1.0000   1.0000   1.0000   1.0000   1.0000   1.0000   1.0000
     1.0000   1.0000   1.0000   1.0000   1.0000   1.0000   1.0000   0.0000
     0.0000   0.0000   0.0000

          k = 0.0000 0.1925-0.0000 (  3883 PWs)   bands (ev):

   -27.0505 -27.0138 -20.8798 -17.5436 -11.7676  -9.3392  -7.8091  -7.1997
    -6.4951  -6.2103  -5.9386  -4.3917  -3.7931  -3.6600  -2.6191   2.8115
     4.0511   5.7328   5.9778

     occupation numbers 
     1.0000   1.0000   1.0000   1.0000   1.0000   1.0000   1.0000   1.0000
     1.0000   1.0000   1.0000   1.0000   1.0000   1.0000   1.0000   0.0000
     0.0000   0.0000   0.0000

          k = 0.0000 0.3849-0.0000 (  3937 PWs)   bands (ev):

   -26.5481 -26.5329 -19.1553 -16.0990 -12.1959 -10.8557 -10.1791  -8.8779
    -7.6845  -7.4087  -6.7490  -5.9474  -4.9696  -4.3570  -3.4246   2.6791
     4.3800   5.5034   7.2029

     occupation numbers 
     1.0000   1.0000   1.0000   1.0000   1.0000   1.0000   1.0000   1.0000
     1.0000   1.0000   1.0000   1.0000   1.0000   1.0000   1.0000   0.0000
     0.0000   0.0000   0.0000

          k = 0.0000-0.5774 0.0000 (  3930 PWs)   bands (ev):

   -26.2773 -26.2746 -16.9859 -15.4008 -13.9200 -13.1906  -9.8101  -9.2858
    -8.1923  -7.8070  -7.1370  -6.8119  -5.2557  -4.5603  -3.7125   2.7267
     3.9450   4.9725   7.8551

     occupation numbers 
     1.0000   1.0000   1.0000   1.0000   1.0000   1.0000   1.0000   1.0000
     1.0000   1.0000   1.0000   1.0000   1.0000   1.0000   1.0000   0.0000
     0.0000   0.0000   0.0000

          k = 0.1667-0.0962-0.0000 (  3883 PWs)   bands (ev):

   -27.0505 -27.0138 -20.8798 -17.5436 -11.7676  -9.3392  -7.8091  -7.1997
    -6.4951  -6.2103  -5.9386  -4.3917  -3.7931  -3.6600  -2.6191   2.8115
     4.0511   5.7334   5.9778

     occupation numbers 
     1.0000   1.0000   1.0000   1.0000   1.0000   1.0000   1.0000   1.0000
     1.0000   1.0000   1.0000   1.0000   1.0000   1.0000   1.0000   0.0000
     0.0000   0.0000   0.0000

          k = 0.1667 0.0962-0.0000 (  3883 PWs)   bands (ev):

   -27.0505 -27.0138 -20.8798 -17.5436 -11.7676  -9.3392  -7.8091  -7.1996
    -6.4952  -6.2103  -5.9386  -4.3917  -3.7931  -3.6600  -2.6191   2.8115
     4.0511   5.7329   5.9778

     occupation numbers 
     1.0000   1.0000   1.0000   1.0000   1.0000   1.0000   1.0000   1.0000
     1.0000   1.0000   1.0000   1.0000   1.0000   1.0000   1.0000   0.0000
     0.0000   0.0000   0.0000

          k = 0.1667 0.2887-0.0000 (  3915 PWs)   bands (ev):

   -26.6796 -26.6587 -19.7231 -16.5693 -11.3461  -9.8578  -9.7384  -8.5114
    -8.2317  -7.6663  -6.4713  -5.4964  -4.6370  -4.2091  -3.9740   4.2302
     4.4640   6.4277   7.6529

     occupation numbers 
     1.0000   1.0000   1.0000   1.0000   1.0000   1.0000   1.0000   1.0000
     1.0000   1.0000   1.0000   1.0000   1.0000   1.0000   1.0000   0.0000
     0.0000   0.0000   0.0000

          k = 0.1667-0.6736 0.0000 (  3927 PWs)   bands (ev):

   -26.2848 -26.2792 -17.5173 -14.7887 -13.6272 -12.0093  -9.9883  -9.6906
    -9.1337  -8.2951  -7.6606  -6.4003  -5.5000  -4.6610  -4.5097   4.3171
     5.3405   6.8609   7.1820

     occupation numbers 
     1.0000   1.0000   1.0000   1.0000   1.0000   1.0000   1.0000   1.0000
     1.0000   1.0000   1.0000   1.0000   1.0000   1.0000   1.0000   0.0000
     0.0000   0.0000   0.0000

          k = 0.1667-0.4811 0.0000 (  3927 PWs)   bands (ev):

   -26.2848 -26.2792 -17.5173 -14.7887 -13.6272 -12.0093  -9.9883  -9.6906
    -9.1337  -8.2951  -7.6605  -6.4003  -5.5000  -4.6610  -4.5097   4.3171
     5.3405   6.8606   7.1820

     occupation numbers 
     1.0000   1.0000   1.0000   1.0000   1.0000   1.0000   1.0000   1.0000
     1.0000   1.0000   1.0000   1.0000   1.0000   1.0000   1.0000   0.0000
     0.0000   0.0000   0.0000

          k = 0.1667-0.2887 0.0000 (  3915 PWs)   bands (ev):

   -26.6796 -26.6587 -19.7231 -16.5693 -11.3461  -9.8578  -9.7384  -8.5114
    -8.2317  -7.6663  -6.4713  -5.4964  -4.6370  -4.2091  -3.9740   4.2302
     4.4640   6.4277   7.4534

     occupation numbers 
     1.0000   1.0000   1.0000   1.0000   1.0000   1.0000   1.0000   1.0000
     1.0000   1.0000   1.0000   1.0000   1.0000   1.0000   1.0000   0.0000
     0.0000   0.0000   0.0000

          k = 0.3333-0.1925-0.0000 (  3937 PWs)   bands (ev):

   -26.5481 -26.5329 -19.1553 -16.0990 -12.1959 -10.8557 -10.1791  -8.8779
    -7.6845  -7.4088  -6.7490  -5.9474  -4.9696  -4.3570  -3.4246   2.6791
     4.3800   5.5034   7.2029

     occupation numbers 
     1.0000   1.0000   1.0000   1.0000   1.0000   1.0000   1.0000   1.0000
     1.0000   1.0000   1.0000   1.0000   1.0000   1.0000   1.0000   0.0000
     0.0000   0.0000   0.0000

          k = 0.3333-0.0000-0.0000 (  3915 PWs)   bands (ev):

   -26.6796 -26.6587 -19.7231 -16.5693 -11.3461  -9.8578  -9.7384  -8.5114
    -8.2317  -7.6663  -6.4713  -5.4964  -4.6370  -4.2091  -3.9740   4.2301
     4.4640   6.4277   7.4553

     occupation numbers 
     1.0000   1.0000   1.0000   1.0000   1.0000   1.0000   1.0000   1.0000
     1.0000   1.0000   1.0000   1.0000   1.0000   1.0000   1.0000   0.0000
     0.0000   0.0000   0.0000

          k = 0.3333 0.1925-0.0000 (  3937 PWs)   bands (ev):

   -26.5481 -26.5329 -19.1553 -16.0990 -12.1959 -10.8557 -10.1791  -8.8779
    -7.6845  -7.4088  -6.7490  -5.9474  -4.9696  -4.3570  -3.4246   2.6791
     4.3799   5.5034   7.2028

     occupation numbers 
     1.0000   1.0000   1.0000   1.0000   1.0000   1.0000   1.0000   1.0000
     1.0000   1.0000   1.0000   1.0000   1.0000   1.0000   1.0000   0.0000
     0.0000   0.0000   0.0000

          k = 0.3333-0.7698 0.0000 (  3927 PWs)   bands (ev):

   -26.2848 -26.2792 -17.5173 -14.7887 -13.6272 -12.0093  -9.9882  -9.6906
    -9.1337  -8.2951  -7.6606  -6.4003  -5.5000  -4.6610  -4.5097   4.3170
     5.3405   6.8607   7.1820

     occupation numbers 
     1.0000   1.0000   1.0000   1.0000   1.0000   1.0000   1.0000   1.0000
     1.0000   1.0000   1.0000   1.0000   1.0000   1.0000   1.0000   0.0000
     0.0000   0.0000   0.0000

          k = 0.3333-0.5774 0.0000 (  3885 PWs)   bands (ev):

   -26.1526 -26.1524 -15.8336 -13.9600 -13.9600 -12.8615 -11.0842 -11.0841
    -8.6664  -8.6325  -8.6323  -5.9254  -5.8588  -5.8587  -4.6669   5.1517
     5.1518   8.3653   9.0444

     occupation numbers 
     1.0000   1.0000   1.0000   1.0000   1.0000   1.0000   1.0000   1.0000
     1.0000   1.0000   1.0000   1.0000   1.0000   1.0000   1.0000   0.0000
     0.0000   0.0000   0.0000

          k = 0.3333-0.3849-0.0000 (  3927 PWs)   bands (ev):

   -26.2848 -26.2792 -17.5173 -14.7887 -13.6272 -12.0093  -9.9883  -9.6906
    -9.1337  -8.2951  -7.6605  -6.4003  -5.5000  -4.6610  -4.5097   4.3171
     5.3405   6.8606   7.1820

     occupation numbers 
     1.0000   1.0000   1.0000   1.0000   1.0000   1.0000   1.0000   1.0000
     1.0000   1.0000   1.0000   1.0000   1.0000   1.0000   1.0000   0.0000
     0.0000   0.0000   0.0000

          k =-0.5000 0.2887 0.0000 (  3930 PWs)   bands (ev):

   -26.2773 -26.2746 -16.9859 -15.4008 -13.9200 -13.1906  -9.8101  -9.2858
    -8.1923  -7.8070  -7.1370  -6.8119  -5.2556  -4.5603  -3.7125   2.7267
     3.9450   4.9725   7.8547

     occupation numbers 
     1.0000   1.0000   1.0000   1.0000   1.0000   1.0000   1.0000   1.0000
     1.0000   1.0000   1.0000   1.0000   1.0000   1.0000   1.0000   0.0000
     0.0000   0.0000   0.0000

          k =-0.5000 0.4811 0.0000 (  3927 PWs)   bands (ev):

   -26.2848 -26.2792 -17.5173 -14.7887 -13.6272 -12.0093  -9.9883  -9.6906
    -9.1337  -8.2951  -7.6606  -6.4003  -5.5000  -4.6610  -4.5097   4.3171
     5.3406   6.8606   7.1820

     occupation numbers 
     1.0000   1.0000   1.0000   1.0000   1.0000   1.0000   1.0000   1.0000
     1.0000   1.0000   1.0000   1.0000   1.0000   1.0000   1.0000   0.0000
     0.0000   0.0000   0.0000

          k =-0.5000 0.6736 0.0000 (  3927 PWs)   bands (ev):

   -26.2848 -26.2792 -17.5173 -14.7887 -13.6272 -12.0093  -9.9882  -9.6906
    -9.1337  -8.2951  -7.6606  -6.4003  -5.5000  -4.6610  -4.5097   4.3170
     5.3405   6.8607   7.1820

     occupation numbers 
     1.0000   1.0000   1.0000   1.0000   1.0000   1.0000   1.0000   1.0000
     1.0000   1.0000   1.0000   1.0000   1.0000   1.0000   1.0000   0.0000
     0.0000   0.0000   0.0000

          k =-0.5000-0.2887 0.0001 (  3930 PWs)   bands (ev):

   -26.2773 -26.2746 -16.9859 -15.4008 -13.9200 -13.1906  -9.8100  -9.2858
    -8.1923  -7.8071  -7.1370  -6.8118  -5.2556  -4.5603  -3.7125   2.7267
     3.9449   4.9725   7.8542

     occupation numbers 
     1.0000   1.0000   1.0000   1.0000   1.0000   1.0000   1.0000   1.0000
     1.0000   1.0000   1.0000   1.0000   1.0000   1.0000   1.0000   0.0000
     0.0000   0.0000   0.0000

     the Fermi energy is     0.2340 ev

!    total energy              =    -189.93989355 Ry
     Harris-Foulkes estimate   =    -189.93989355 Ry
     estimated scf accuracy    <          6.0E-11 Ry

     total all-electron energy =      -701.912008 Ry

     The total energy is the sum of the following terms:

     one-electron contribution =   -1506.89722811 Ry
     hartree contribution      =     763.09793669 Ry
     xc contribution           =     -37.16329451 Ry
     ewald contribution        =     636.01910727 Ry
     one-center paw contrib.   =     -44.99641489 Ry
      -> PAW hartree energy AE =     117.52690751 Ry
      -> PAW hartree energy PS =    -117.44722859 Ry
      -> PAW xc energy AE      =     -80.45862934 Ry
      -> PAW xc energy PS      =      35.38253554 Ry
      -> total E_H with PAW    =     763.17761561 Ry
      -> total E_XC with PAW   =     -82.23938831 Ry
     smearing contrib. (-TS)   =      -0.00000000 Ry

     convergence has been achieved in  12 iterations

     negative rho (up, down):  6.399E-04 0.000E+00

     Forces acting on atoms (cartesian axes, Ry/au):

     atom    1 type  1   force =    -0.00000134   -0.00000136   -0.00877961
     atom    2 type  1   force =    -0.00000358   -0.00000260    0.00017485
     atom    3 type  1   force =     0.00000072    0.00000096    0.00878091
     atom    4 type  1   force =     0.00000248    0.00000199   -0.00022603
     atom    5 type  2   force =     0.00000263    0.00000194    0.01746870
     atom    6 type  2   force =    -0.00000090   -0.00000092   -0.01741881
     The non-local contrib.  to forces
     atom    1 type  1   force =    -0.00000490   -0.00000434   -0.40388222
     atom    2 type  1   force =    -0.00000597   -0.00000441    0.08266489
     atom    3 type  1   force =     0.00000293    0.00000336    0.40389818
     atom    4 type  1   force =     0.00000345    0.00000304   -0.08268023
     atom    5 type  2   force =     0.00004181    0.00003133    3.17140750
     atom    6 type  2   force =    -0.00001625   -0.00001676   -3.17139470
     The ionic contribution  to forces
     atom    1 type  1   force =     0.00006601    0.00004732  -13.36767802
     atom    2 type  1   force =    -0.00000457    0.00000014   -9.40120984
     atom    3 type  1   force =    -0.00002607   -0.00002490   13.36783775
     atom    4 type  1   force =    -0.00000452   -0.00000517    9.40118888
     atom    5 type  2   force =    -0.00005247   -0.00003943  -66.85280486
     atom    6 type  2   force =     0.00002161    0.00002204   66.85266609
     The local contribution  to forces
     atom    1 type  1   force =    -0.00006228   -0.00004424   13.75438429
     atom    2 type  1   force =     0.00000705    0.00000175    9.31996064
     atom    3 type  1   force =     0.00002374    0.00002244  -13.75455229
     atom    4 type  1   force =     0.00000328    0.00000396   -9.31990755
     atom    5 type  2   force =     0.00001332    0.00001024   63.70906782
     atom    6 type  2   force =    -0.00000621   -0.00000622  -63.70896711
     The core correction contribution to forces
     atom    1 type  1   force =    -0.00000012   -0.00000006    0.00834920
     atom    2 type  1   force =     0.00000004    0.00000002   -0.00128330
     atom    3 type  1   force =     0.00000026    0.00000014   -0.00843020
     atom    4 type  1   force =     0.00000034    0.00000020    0.00114067
     atom    5 type  2   force =    -0.00000011   -0.00000009   -0.01024759
     atom    6 type  2   force =    -0.00000000    0.00000003    0.01024651
     The Hubbard contrib.    to forces
     atom    1 type  1   force =     0.00000000    0.00000000    0.00000000
     atom    2 type  1   force =     0.00000000    0.00000000    0.00000000
     atom    3 type  1   force =     0.00000000    0.00000000    0.00000000
     atom    4 type  1   force =     0.00000000    0.00000000    0.00000000
     atom    5 type  2   force =     0.00000000    0.00000000    0.00000000
     atom    6 type  2   force =     0.00000000    0.00000000    0.00000000
     The SCF correction term to forces
     atom    1 type  1   force =     0.00000004    0.00000002    0.00001124
     atom    2 type  1   force =    -0.00000004   -0.00000004    0.00000657
     atom    3 type  1   force =    -0.00000006   -0.00000001   -0.00000843
     atom    4 type  1   force =     0.00000002    0.00000002   -0.00000369
     atom    5 type  2   force =     0.00000016   -0.00000005    0.00000994
     atom    6 type  2   force =     0.00000005    0.00000005   -0.00000549

     Total force =     0.027620     Total SCF correction =     0.000020


     Computing stress (Cartesian axis) and pressure


     negative rho (up, down):  6.399E-04 0.000E+00
          total   stress  (Ry/bohr**3)                   (kbar)     P=  -23.20
  -0.00014687  -0.00000000  -0.00000001        -21.61     -0.00     -0.00
  -0.00000000  -0.00014687  -0.00000001         -0.00    -21.61     -0.00
  -0.00000001  -0.00000001  -0.00017946         -0.00     -0.00    -26.40

     kinetic stress (kbar)   9165.14     -0.00     -0.01
                               -0.00   9165.14     -0.01
                               -0.01     -0.01   8324.02

     local   stress (kbar)-286810.25      0.01     -0.02
                                0.01-286810.26     -0.02
                               -0.02     -0.02 276372.76

     nonloc. stress (kbar)   3142.54     -0.00     -0.00
                               -0.00   3142.54     -0.00
                               -0.00     -0.00   2878.97

     hartree stress (kbar) 141385.28     -0.00      0.01
                               -0.00 141385.28      0.00
                                0.01      0.00-136840.82

     exc-cor stress (kbar)  -1130.26     -0.00      0.00
                               -0.00  -1130.26      0.00
                                0.00      0.00  -1126.95

     corecor stress (kbar)   -939.42      0.00      0.00
                                0.00   -939.42      0.00
                                0.00      0.00   -931.69

     ewald   stress (kbar) 135165.36     -0.01      0.03
                               -0.01 135165.37      0.02
                                0.03      0.02-148702.69

     hubbard stress (kbar)      0.00      0.00      0.00
                                0.00      0.00      0.00
                                0.00      0.00      0.00

     london  stress (kbar)      0.00      0.00      0.00
                                0.00      0.00      0.00
                                0.00      0.00      0.00

     DFT-D3  stress (kbar)      0.00      0.00      0.00
                                0.00      0.00      0.00
                                0.00      0.00      0.00

     XDM     stress (kbar)      0.00      0.00      0.00
                                0.00      0.00      0.00
                                0.00      0.00      0.00

     dft-nl  stress (kbar)      0.00      0.00      0.00
                                0.00      0.00      0.00
                                0.00      0.00      0.00

     TS-vdW  stress (kbar)      0.00      0.00      0.00
                                0.00      0.00      0.00
                                0.00      0.00      0.00

     3D-RISM stress (kbar)      0.00      0.00      0.00
                                0.00      0.00      0.00
                                0.00      0.00      0.00



     Writing output data file pwscf.save\

     init_run     :     10.34s CPU      5.77s WALL (       1 calls)
     electrons    :     83.28s CPU     53.35s WALL (       1 calls)
     forces       :      6.88s CPU      1.15s WALL (       1 calls)
     stress       :     17.64s CPU      2.87s WALL (       1 calls)

     Called by init_run:
     wfcinit      :      1.52s CPU      0.97s WALL (       1 calls)
     wfcinit:atom :      0.05s CPU      0.04s WALL (      20 calls)
     wfcinit:wfcr :      1.30s CPU      0.77s WALL (      20 calls)
     potinit      :      3.73s CPU      0.62s WALL (       1 calls)
     hinit0       :      4.94s CPU      4.00s WALL (       1 calls)

     Called by electrons:
     c_bands      :     66.66s CPU     44.57s WALL (      12 calls)
     sum_band     :      9.25s CPU      5.21s WALL (      12 calls)
     v_of_rho     :      1.52s CPU      0.82s WALL (      13 calls)
     v_h          :      0.02s CPU      0.07s WALL (      13 calls)
     v_xc         :      1.81s CPU      0.86s WALL (      15 calls)
     newd         :      1.61s CPU      1.00s WALL (      13 calls)
     PAW_pot      :      4.33s CPU      1.84s WALL (      13 calls)
     mix_rho      :      0.31s CPU      0.14s WALL (      12 calls)

     Called by c_bands:
     init_us_2    :      0.86s CPU      0.41s WALL (     540 calls)
     ccgdiagg     :     56.17s CPU     38.44s WALL (     240 calls)
     wfcrot       :     11.48s CPU      6.63s WALL (     240 calls)

     Called by sum_band:
     sum_band:bec :      0.03s CPU      0.05s WALL (     240 calls)
     addusdens    :      1.83s CPU      1.29s WALL (      12 calls)

     Called by *cgdiagg:
     h_psi        :     49.44s CPU     30.13s WALL (   12629 calls)
     s_psi        :      7.44s CPU      6.08s WALL (   25018 calls)
     cdiaghg      :      0.03s CPU      0.02s WALL (     240 calls)

     Called by h_psi:
     h_psi:pot    :     48.12s CPU     28.77s WALL (   12629 calls)
     h_psi:calbec :      9.22s CPU      4.96s WALL (   12629 calls)
     vloc_psi     :     35.31s CPU     21.71s WALL (   12629 calls)
     add_vuspsi   :      3.58s CPU      2.08s WALL (   12629 calls)
     hs_1psi      :     45.55s CPU     29.02s WALL (   12389 calls)
     s_1psi       :      7.09s CPU      6.24s WALL (   12389 calls)

     General routines
     calbec       :     13.23s CPU      7.81s WALL (   25358 calls)
     fft          :      0.17s CPU      0.14s WALL (     192 calls)
     ffts         :      0.02s CPU      0.02s WALL (      25 calls)
     fftw         :     26.50s CPU     15.31s WALL (   38658 calls)
     interpolate  :      0.02s CPU      0.04s WALL (      13 calls)

     Parallel routines

     PAW routines
     PAW_pot      :      4.33s CPU      1.84s WALL (      13 calls)

     PWSCF        :   1m59.89s CPU   1m 5.27s WALL


   This run was terminated on:  17: 6:17  19Nov2024            

=------------------------------------------------------------------------------=
   JOB DONE.
=------------------------------------------------------------------------------=
