
     Program PWSCF v.6.4.1 starts on  1Dec2024 at 14:17: 1 

     This program is part of the open-source Quantum ESPRESSO suite
     for quantum simulation of materials; please cite
         "P. Giannozzi et al., J. Phys.:Condens. Matter 21 395502 (2009);
         "P. Giannozzi et al., J. Phys.:Condens. Matter 29 465901 (2017);
          URL http://www.quantum-espresso.org", 
     in publications or presentations arising from this work. More details at
     http://www.quantum-espresso.org/quote

     Parallel version (MPI & OpenMP), running on      12 processor cores
     Number of MPI processes:                 1
     Threads/MPI process:                    12

     MPI processes distributed on     1 nodes
     Waiting for input...
     Reading input from standard input
Warning: card &IONS ignored
Warning: card ION_DYNAMICS = 'BFGS' ignored
Warning: card / ignored
Warning: card &CELL ignored
Warning: card CELL_DOFREE = 'ALL' ignored
Warning: card CELL_DYNAMICS = 'BFGS' ignored
Warning: card PRESS = 0.0 ignored
Warning: card PRESS_CONV_THR = 0.5 ignored
Warning: card / ignored

     Current dimensions of program PWSCF are:
     Max number of different atomic species (ntypx) = 10
     Max number of k-points (npk) =  40000
     Max angular momentum in pseudopotentials (lmaxx) =  3
               file C.pbesol-n-kjpaw_psl.1.0.0.UPF: wavefunction(s)  2S 2P renormalized
               file F.pbesol-n-kjpaw_psl.1.0.0.UPF: wavefunction(s)  2S 2P renormalized

     Subspace diagonalization in iterative solution of the eigenvalue problem:
     a serial algorithm will be used


     G-vector sticks info
     --------------------
     sticks:   dense  smooth     PW     G-vecs:    dense   smooth      PW
     Sum         583     289     97                87127    30711    6199



     bravais-lattice index     =            0
     lattice parameter (alat)  =       4.7924  a.u.
     unit-cell volume          =     753.8031 (a.u.)^3
     number of atoms/cell      =            6
     number of atomic types    =            2
     number of electrons       =        30.00
     number of Kohn-Sham states=           19
     kinetic-energy cutoff     =      45.0000  Ry
     charge density cutoff     =     360.0000  Ry
     convergence threshold     =      1.0E-06
     mixing beta               =       0.7000
     number of iterations used =            8  plain     mixing
     Exchange-correlation      = SLA PW PSX PSC ( 1  4 10  8 0 0)

     celldm(1)=   4.792367  celldm(2)=   0.000000  celldm(3)=   0.000000
     celldm(4)=   0.000000  celldm(5)=   0.000000  celldm(6)=   0.000000

     crystal axes: (cart. coord. in units of alat)
               a(1) = (   1.000000  -0.000000   0.000000 )  
               a(2) = (   0.501972   0.869440   0.000000 )  
               a(3) = (   0.000643   0.000377   7.877128 )  

     reciprocal axes: (cart. coord. in units 2 pi/alat)
               b(1) = (  1.000000 -0.577350 -0.000054 )  
               b(2) = (  0.000000  1.150165 -0.000055 )  
               b(3) = ( -0.000000  0.000000  0.126950 )  


     PseudoPot. # 1 for C  read from file:
     .\C.pbesol-n-kjpaw_psl.1.0.0.UPF
     MD5 check sum: f9b2fe17d1f478429498b05d17159f9e
     Pseudo is Projector augmented-wave + core cor, Zval =  4.0
     Generated using "atomic" code by A. Dal Corso v.6.3
     Shape of augmentation charge: PSQ
     Using radial grid of 1073 points,  4 beta functions with: 
                l(1) =   0
                l(2) =   0
                l(3) =   1
                l(4) =   1
     Q(r) pseudized with 0 coefficients 


     PseudoPot. # 2 for F  read from file:
     .\F.pbesol-n-kjpaw_psl.1.0.0.UPF
     MD5 check sum: d939582bcd23f1ece12cfc4fab8d9d36
     Pseudo is Projector augmented-wave + core cor, Zval =  7.0
     Generated using "atomic" code by A. Dal Corso v.6.3
     Shape of augmentation charge: PSQ
     Using radial grid of 1105 points,  4 beta functions with: 
                l(1) =   0
                l(2) =   0
                l(3) =   1
                l(4) =   1
     Q(r) pseudized with 0 coefficients 


     atomic species   valence    mass     pseudopotential
        C              4.00    12.01070     C ( 1.00)
        F              7.00    18.99840     F ( 1.00)

     No symmetry found


                                    s                        frac. trans.

      isym =  1     identity                                     

 cryst.   s( 1) = (     1          0          0      )
                  (     0          1          0      )
                  (     0          0          1      )

 cart.    s( 1) = (  1.0000000  0.0000000  0.0000000 )
                  (  0.0000000  1.0000000 -0.0000000 )
                  (  0.0000000  0.0000000  1.0000000 )


   Cartesian axes

     site n.     atom                  positions (alat units)
         1           C   tau(   1) = (   0.0003532   0.0002078   3.9655701  )
         2           C   tau(   2) = (   0.5010111   0.2900215   4.1639094  )
         3           C   tau(   3) = (   1.0016649   0.5798315   4.9749878  )
         4           C   tau(   4) = (   0.5010074   0.2900180   4.7766442  )
         5           F   tau(   5) = (   0.0003464   0.0002027   3.4221317  )
         6           F   tau(   6) = (   1.0016677   0.5798343   5.5184294  )

   Crystallographic axes

     site n.     atom                  positions (cryst. coord.)
         1           C   tau(   1) = (  0.0000192  0.0000206  0.5034284  )
         2           C   tau(   2) = (  0.3333424  0.3333434  0.5286075  )
         3           C   tau(   3) = (  0.6666304  0.6666281  0.6315738  )
         4           C   tau(   4) = (  0.3333076  0.3333056  0.6063941  )
         5           F   tau(   5) = (  0.0000446  0.0000447  0.4344390  )
         6           F   tau(   6) = (  0.6666024  0.6666014  0.7005636  )

     number of k points=    74  Marzari-Vanderbilt smearing, width (Ry)=  0.0200
                       cart. coord. in units 2pi/alat
        k(    1) = (   0.0000000   0.0000000   0.0000000), wk =   0.0138889
        k(    2) = (   0.0000000   0.0958471  -0.0000046), wk =   0.0277778
        k(    3) = (   0.0000000   0.1916942  -0.0000092), wk =   0.0277778
        k(    4) = (   0.0000001   0.2875412  -0.0000138), wk =   0.0277778
        k(    5) = (   0.0000001   0.3833883  -0.0000184), wk =   0.0277778
        k(    6) = (   0.0000001   0.4792354  -0.0000229), wk =   0.0277778
        k(    7) = (  -0.0000001  -0.5750825   0.0000275), wk =   0.0138889
        k(    8) = (   0.0833333  -0.0481125  -0.0000045), wk =   0.0277778
        k(    9) = (   0.0833333   0.0477346  -0.0000091), wk =   0.0277778
        k(   10) = (   0.0833334   0.1435817  -0.0000137), wk =   0.0277778
        k(   11) = (   0.0833334   0.2394287  -0.0000183), wk =   0.0277778
        k(   12) = (   0.0833334   0.3352758  -0.0000229), wk =   0.0277778
        k(   13) = (   0.0833334   0.4311229  -0.0000274), wk =   0.0277778
        k(   14) = (   0.0833332  -0.6231950   0.0000230), wk =   0.0277778
        k(   15) = (   0.0833332  -0.5273479   0.0000185), wk =   0.0277778
        k(   16) = (   0.0833332  -0.4315008   0.0000139), wk =   0.0277778
        k(   17) = (   0.0833333  -0.3356538   0.0000093), wk =   0.0277778
        k(   18) = (   0.0833333  -0.2398067   0.0000047), wk =   0.0277778
        k(   19) = (   0.0833333  -0.1439596   0.0000001), wk =   0.0277778
        k(   20) = (   0.1666666  -0.0962250  -0.0000090), wk =   0.0277778
        k(   21) = (   0.1666667  -0.0003779  -0.0000136), wk =   0.0277778
        k(   22) = (   0.1666667   0.0954691  -0.0000182), wk =   0.0277778
        k(   23) = (   0.1666667   0.1913162  -0.0000228), wk =   0.0277778
        k(   24) = (   0.1666667   0.2871633  -0.0000274), wk =   0.0277778
        k(   25) = (   0.1666667   0.3830104  -0.0000319), wk =   0.0277778
        k(   26) = (   0.1666665  -0.6713075   0.0000185), wk =   0.0277778
        k(   27) = (   0.1666665  -0.5754604   0.0000140), wk =   0.0277778
        k(   28) = (   0.1666666  -0.4796133   0.0000094), wk =   0.0277778
        k(   29) = (   0.1666666  -0.3837663   0.0000048), wk =   0.0277778
        k(   30) = (   0.1666666  -0.2879192   0.0000002), wk =   0.0277778
        k(   31) = (   0.1666666  -0.1920721  -0.0000044), wk =   0.0277778
        k(   32) = (   0.2500000  -0.1443375  -0.0000135), wk =   0.0277778
        k(   33) = (   0.2500000  -0.0484904  -0.0000181), wk =   0.0277778
        k(   34) = (   0.2500000   0.0473566  -0.0000227), wk =   0.0277778
        k(   35) = (   0.2500000   0.1432037  -0.0000273), wk =   0.0277778
        k(   36) = (   0.2500000   0.2390508  -0.0000319), wk =   0.0277778
        k(   37) = (   0.2500001   0.3348979  -0.0000364), wk =   0.0277778
        k(   38) = (   0.2499999  -0.7194200   0.0000140), wk =   0.0277778
        k(   39) = (   0.2499999  -0.6235729   0.0000095), wk =   0.0277778
        k(   40) = (   0.2499999  -0.5277258   0.0000049), wk =   0.0277778
        k(   41) = (   0.2499999  -0.4318788   0.0000003), wk =   0.0277778
        k(   42) = (   0.2499999  -0.3360317  -0.0000043), wk =   0.0277778
        k(   43) = (   0.2500000  -0.2401846  -0.0000089), wk =   0.0277778
        k(   44) = (   0.3333333  -0.1924500  -0.0000180), wk =   0.0277778
        k(   45) = (   0.3333333  -0.0966029  -0.0000226), wk =   0.0277778
        k(   46) = (   0.3333333  -0.0007559  -0.0000272), wk =   0.0277778
        k(   47) = (   0.3333334   0.0950912  -0.0000318), wk =   0.0277778
        k(   48) = (   0.3333334   0.1909383  -0.0000364), wk =   0.0277778
        k(   49) = (   0.3333334   0.2867854  -0.0000409), wk =   0.0277778
        k(   50) = (   0.3333332  -0.7675325   0.0000095), wk =   0.0277778
        k(   51) = (   0.3333332  -0.6716854   0.0000050), wk =   0.0277778
        k(   52) = (   0.3333332  -0.5758384   0.0000004), wk =   0.0277778
        k(   53) = (   0.3333332  -0.4799913  -0.0000042), wk =   0.0277778
        k(   54) = (   0.3333333  -0.3841442  -0.0000088), wk =   0.0277778
        k(   55) = (   0.3333333  -0.2882971  -0.0000134), wk =   0.0277778
        k(   56) = (   0.4166666  -0.2405625  -0.0000225), wk =   0.0277778
        k(   57) = (   0.4166666  -0.1447155  -0.0000271), wk =   0.0277778
        k(   58) = (   0.4166667  -0.0488684  -0.0000317), wk =   0.0277778
        k(   59) = (   0.4166667   0.0469787  -0.0000363), wk =   0.0277778
        k(   60) = (   0.4166667   0.1428258  -0.0000408), wk =   0.0277778
        k(   61) = (   0.4166667   0.2386729  -0.0000454), wk =   0.0277778
        k(   62) = (   0.4166665  -0.8156450   0.0000050), wk =   0.0277778
        k(   63) = (   0.4166665  -0.7197979   0.0000005), wk =   0.0277778
        k(   64) = (   0.4166665  -0.6239509  -0.0000041), wk =   0.0277778
        k(   65) = (   0.4166666  -0.5281038  -0.0000087), wk =   0.0277778
        k(   66) = (   0.4166666  -0.4322567  -0.0000133), wk =   0.0277778
        k(   67) = (   0.4166666  -0.3364096  -0.0000179), wk =   0.0277778
        k(   68) = (  -0.4999999   0.2886750   0.0000270), wk =   0.0138889
        k(   69) = (  -0.4999999   0.3845221   0.0000224), wk =   0.0277778
        k(   70) = (  -0.4999999   0.4803692   0.0000178), wk =   0.0277778
        k(   71) = (  -0.4999999   0.5762163   0.0000132), wk =   0.0277778
        k(   72) = (  -0.4999999   0.6720634   0.0000086), wk =   0.0277778
        k(   73) = (  -0.4999998   0.7679104   0.0000040), wk =   0.0277778
        k(   74) = (  -0.5000001  -0.2864074   0.0000545), wk =   0.0138889

                       cryst. coord.
        k(    1) = (   0.0000000   0.0000000   0.0000000), wk =   0.0138889
        k(    2) = (   0.0000000   0.0833333  -0.0000000), wk =   0.0277778
        k(    3) = (   0.0000000   0.1666667  -0.0000000), wk =   0.0277778
        k(    4) = (  -0.0000000   0.2500000   0.0000000), wk =   0.0277778
        k(    5) = (   0.0000000   0.3333333  -0.0000000), wk =   0.0277778
        k(    6) = (   0.0000000   0.4166667   0.0000000), wk =   0.0277778
        k(    7) = (   0.0000000  -0.5000000   0.0000000), wk =   0.0138889
        k(    8) = (   0.0833333   0.0000000   0.0000000), wk =   0.0277778
        k(    9) = (   0.0833333   0.0833333   0.0000000), wk =   0.0277778
        k(   10) = (   0.0833333   0.1666667   0.0000000), wk =   0.0277778
        k(   11) = (   0.0833333   0.2500000  -0.0000000), wk =   0.0277778
        k(   12) = (   0.0833333   0.3333333  -0.0000000), wk =   0.0277778
        k(   13) = (   0.0833333   0.4166667   0.0000000), wk =   0.0277778
        k(   14) = (   0.0833333  -0.5000000   0.0000000), wk =   0.0277778
        k(   15) = (   0.0833333  -0.4166667   0.0000000), wk =   0.0277778
        k(   16) = (   0.0833333  -0.3333333   0.0000000), wk =   0.0277778
        k(   17) = (   0.0833333  -0.2500000   0.0000000), wk =   0.0277778
        k(   18) = (   0.0833333  -0.1666667   0.0000000), wk =   0.0277778
        k(   19) = (   0.0833333  -0.0833333  -0.0000000), wk =   0.0277778
        k(   20) = (   0.1666667   0.0000000   0.0000000), wk =   0.0277778
        k(   21) = (   0.1666667   0.0833333  -0.0000000), wk =   0.0277778
        k(   22) = (   0.1666667   0.1666667   0.0000000), wk =   0.0277778
        k(   23) = (   0.1666667   0.2500000   0.0000000), wk =   0.0277778
        k(   24) = (   0.1666667   0.3333333   0.0000000), wk =   0.0277778
        k(   25) = (   0.1666667   0.4166667   0.0000000), wk =   0.0277778
        k(   26) = (   0.1666667  -0.5000000   0.0000000), wk =   0.0277778
        k(   27) = (   0.1666667  -0.4166667   0.0000000), wk =   0.0277778
        k(   28) = (   0.1666667  -0.3333333   0.0000000), wk =   0.0277778
        k(   29) = (   0.1666667  -0.2500000   0.0000000), wk =   0.0277778
        k(   30) = (   0.1666667  -0.1666667   0.0000000), wk =   0.0277778
        k(   31) = (   0.1666667  -0.0833333   0.0000000), wk =   0.0277778
        k(   32) = (   0.2500000   0.0000000   0.0000000), wk =   0.0277778
        k(   33) = (   0.2500000   0.0833333   0.0000000), wk =   0.0277778
        k(   34) = (   0.2500000   0.1666667   0.0000000), wk =   0.0277778
        k(   35) = (   0.2500000   0.2500000   0.0000000), wk =   0.0277778
        k(   36) = (   0.2500000   0.3333333   0.0000000), wk =   0.0277778
        k(   37) = (   0.2500000   0.4166667  -0.0000000), wk =   0.0277778
        k(   38) = (   0.2500000  -0.5000000   0.0000000), wk =   0.0277778
        k(   39) = (   0.2500000  -0.4166667   0.0000000), wk =   0.0277778
        k(   40) = (   0.2500000  -0.3333333   0.0000000), wk =   0.0277778
        k(   41) = (   0.2500000  -0.2500000  -0.0000000), wk =   0.0277778
        k(   42) = (   0.2500000  -0.1666667   0.0000000), wk =   0.0277778
        k(   43) = (   0.2500000  -0.0833333   0.0000000), wk =   0.0277778
        k(   44) = (   0.3333333   0.0000000   0.0000000), wk =   0.0277778
        k(   45) = (   0.3333333   0.0833333   0.0000000), wk =   0.0277778
        k(   46) = (   0.3333333   0.1666667  -0.0000000), wk =   0.0277778
        k(   47) = (   0.3333333   0.2500000   0.0000000), wk =   0.0277778
        k(   48) = (   0.3333333   0.3333333   0.0000000), wk =   0.0277778
        k(   49) = (   0.3333333   0.4166667  -0.0000000), wk =   0.0277778
        k(   50) = (   0.3333333  -0.5000000   0.0000000), wk =   0.0277778
        k(   51) = (   0.3333333  -0.4166667   0.0000000), wk =   0.0277778
        k(   52) = (   0.3333333  -0.3333333   0.0000000), wk =   0.0277778
        k(   53) = (   0.3333333  -0.2500000   0.0000000), wk =   0.0277778
        k(   54) = (   0.3333333  -0.1666667   0.0000000), wk =   0.0277778
        k(   55) = (   0.3333333  -0.0833333  -0.0000000), wk =   0.0277778
        k(   56) = (   0.4166667   0.0000000   0.0000000), wk =   0.0277778
        k(   57) = (   0.4166667   0.0833333   0.0000000), wk =   0.0277778
        k(   58) = (   0.4166667   0.1666667   0.0000000), wk =   0.0277778
        k(   59) = (   0.4166667   0.2500000   0.0000000), wk =   0.0277778
        k(   60) = (   0.4166667   0.3333333   0.0000000), wk =   0.0277778
        k(   61) = (   0.4166667   0.4166667   0.0000000), wk =   0.0277778
        k(   62) = (   0.4166667  -0.5000000   0.0000000), wk =   0.0277778
        k(   63) = (   0.4166667  -0.4166667   0.0000000), wk =   0.0277778
        k(   64) = (   0.4166667  -0.3333333   0.0000000), wk =   0.0277778
        k(   65) = (   0.4166667  -0.2500000  -0.0000000), wk =   0.0277778
        k(   66) = (   0.4166667  -0.1666667   0.0000000), wk =   0.0277778
        k(   67) = (   0.4166667  -0.0833333   0.0000000), wk =   0.0277778
        k(   68) = (  -0.5000000   0.0000000  -0.0000000), wk =   0.0138889
        k(   69) = (  -0.5000000   0.0833333   0.0000000), wk =   0.0277778
        k(   70) = (  -0.5000000   0.1666667  -0.0000000), wk =   0.0277778
        k(   71) = (  -0.5000000   0.2500000  -0.0000000), wk =   0.0277778
        k(   72) = (  -0.5000000   0.3333333   0.0000000), wk =   0.0277778
        k(   73) = (  -0.5000000   0.4166667  -0.0000000), wk =   0.0277778
        k(   74) = (  -0.5000000  -0.5000000   0.0000000), wk =   0.0138889

     Dense  grid:    87127 G-vectors     FFT dimensions: (  30,  30, 240)

     Smooth grid:    30711 G-vectors     FFT dimensions: (  24,  24, 162)

     Dynamical RAM for                 wfc:       1.11 MB

     Dynamical RAM for     wfc (w. buffer):      83.56 MB

     Dynamical RAM for           str. fact:       2.66 MB

     Dynamical RAM for           local pot:       0.00 MB

     Dynamical RAM for          nlocal pot:       2.81 MB

     Dynamical RAM for                qrad:       0.66 MB

     Dynamical RAM for          rho,v,vnew:       8.93 MB

     Dynamical RAM for               rhoin:       2.98 MB

     Dynamical RAM for            rho*nmix:      21.27 MB

     Dynamical RAM for           G-vectors:       5.22 MB

     Dynamical RAM for          h,s,v(r/c):       0.26 MB

     Dynamical RAM for          <psi|beta>:       0.01 MB

     Dynamical RAM for                 psi:       4.46 MB

     Dynamical RAM for                hpsi:       4.46 MB

     Dynamical RAM for                spsi:       4.46 MB

     Dynamical RAM for      wfcinit/wfcrot:       2.83 MB

     Dynamical RAM for           addusdens:      62.48 MB

     Dynamical RAM for          addusforce:      79.11 MB

     Dynamical RAM for         addusstress:      66.47 MB

     Estimated static dynamical RAM per process >     140.33 MB

     Estimated max dynamical RAM per process >     219.44 MB

     Check: negative core charge=   -0.000005

     Initial potential from superposition of free atoms

     starting charge   29.99983, renormalised to   30.00000

     negative rho (up, down):  4.982E-04 0.000E+00
     Starting wfcs are   24 randomized atomic wfcs
     Checking if some PAW data can be deallocated... 

     total cpu time spent up to now is        9.8 secs

     Self-consistent Calculation

     iteration #  1     ecut=    45.00 Ry     beta= 0.70
     Davidson diagonalization with overlap
     ethr =  1.00E-02,  avg # of iterations =  2.7

     negative rho (up, down):  5.885E-04 0.000E+00

     total cpu time spent up to now is       18.1 secs

     total energy              =    -189.88157333 Ry
     Harris-Foulkes estimate   =    -190.06267716 Ry
     estimated scf accuracy    <       0.33199415 Ry

     iteration #  2     ecut=    45.00 Ry     beta= 0.70
     Davidson diagonalization with overlap
     ethr =  1.11E-03,  avg # of iterations =  2.4

     negative rho (up, down):  6.160E-04 0.000E+00

     total cpu time spent up to now is       25.3 secs

     total energy              =    -189.91167326 Ry
     Harris-Foulkes estimate   =    -189.96601094 Ry
     estimated scf accuracy    <       0.08700879 Ry

     iteration #  3     ecut=    45.00 Ry     beta= 0.70
     Davidson diagonalization with overlap
     ethr =  2.90E-04,  avg # of iterations =  5.3

     negative rho (up, down):  6.266E-04 0.000E+00

     total cpu time spent up to now is       33.9 secs

     total energy              =    -189.93137069 Ry
     Harris-Foulkes estimate   =    -189.95052251 Ry
     estimated scf accuracy    <       0.03711333 Ry

     iteration #  4     ecut=    45.00 Ry     beta= 0.70
     Davidson diagonalization with overlap
     ethr =  1.24E-04,  avg # of iterations =  4.6

     negative rho (up, down):  6.279E-04 0.000E+00

     total cpu time spent up to now is       41.5 secs

     total energy              =    -189.93938713 Ry
     Harris-Foulkes estimate   =    -189.94376547 Ry
     estimated scf accuracy    <       0.01013778 Ry

     iteration #  5     ecut=    45.00 Ry     beta= 0.70
     Davidson diagonalization with overlap
     ethr =  3.38E-05,  avg # of iterations =  3.7

     negative rho (up, down):  6.314E-04 0.000E+00

     total cpu time spent up to now is       48.7 secs

     total energy              =    -189.94133383 Ry
     Harris-Foulkes estimate   =    -189.94135385 Ry
     estimated scf accuracy    <       0.00006144 Ry

     iteration #  6     ecut=    45.00 Ry     beta= 0.70
     Davidson diagonalization with overlap
     ethr =  2.05E-07,  avg # of iterations =  4.5

     negative rho (up, down):  6.328E-04 0.000E+00

     total cpu time spent up to now is       58.3 secs

     total energy              =    -189.94138461 Ry
     Harris-Foulkes estimate   =    -189.94139454 Ry
     estimated scf accuracy    <       0.00002377 Ry

     iteration #  7     ecut=    45.00 Ry     beta= 0.70
     Davidson diagonalization with overlap
     ethr =  7.92E-08,  avg # of iterations =  2.1

     negative rho (up, down):  6.333E-04 0.000E+00

     total cpu time spent up to now is       64.2 secs

     total energy              =    -189.94138580 Ry
     Harris-Foulkes estimate   =    -189.94138698 Ry
     estimated scf accuracy    <       0.00000253 Ry

     iteration #  8     ecut=    45.00 Ry     beta= 0.70
     Davidson diagonalization with overlap
     ethr =  8.42E-09,  avg # of iterations =  3.0

     negative rho (up, down):  6.334E-04 0.000E+00

     total cpu time spent up to now is       72.0 secs

     End of self-consistent calculation

          k = 0.0000 0.0000 0.0000 (  3831 PWs)   bands (ev):

   -27.2562 -27.2033 -21.5949 -18.1758 -12.1419  -9.3563  -6.1722  -5.6470
    -5.6240  -5.3780  -5.3563  -3.1279  -3.1049  -1.8971  -1.8783   2.0059
     4.6434   4.8480   4.9198

     occupation numbers 
     1.0000   1.0000   1.0000   1.0000   1.0000   1.0000   1.0000   1.0000
     1.0000   1.0000   1.0000   1.0000   1.0000   1.0000   1.0000   0.0000
     0.0000   0.0000   0.0000

          k = 0.0000 0.0958-0.0000 (  3807 PWs)   bands (ev):

   -27.1899 -27.1404 -21.4470 -18.0498 -12.0444  -9.3265  -6.5245  -5.9843
    -5.8231  -5.6683  -5.4653  -3.5761  -3.2840  -2.4339  -2.0647   2.3554
     4.5060   5.2950   5.3401

     occupation numbers 
     1.0000   1.0000   1.0000   1.0000   1.0000   1.0000   1.0000   1.0000
     1.0000   1.0000   1.0000   1.0000   1.0000   1.0000   1.0000   0.0000
     0.0000   0.0000   0.0000

          k = 0.0000 0.1917-0.0000 (  3809 PWs)   bands (ev):

   -27.0049 -26.9643 -21.0041 -17.6738 -11.7698  -9.2783  -7.7401  -7.1228
    -6.3395  -6.1193  -5.7722  -4.2915  -3.6354  -3.5692  -2.4994   2.9031
     4.2765   6.0520   6.0967

     occupation numbers 
     1.0000   1.0000   1.0000   1.0000   1.0000   1.0000   1.0000   1.0000
     1.0000   1.0000   1.0000   1.0000   1.0000   1.0000   1.0000   0.0000
     0.0000   0.0000   0.0000

          k = 0.0000 0.2875-0.0000 (  3837 PWs)   bands (ev):

   -26.7419 -26.7134 -20.2692 -17.0539 -11.4177  -9.8421  -9.1709  -8.3886
    -6.9848  -6.7501  -6.1980  -4.9720  -4.5511  -3.9593  -2.9572   3.0499
     4.3056   6.1045   7.0642

     occupation numbers 
     1.0000   1.0000   1.0000   1.0000   1.0000   1.0000   1.0000   1.0000
     1.0000   1.0000   1.0000   1.0000   1.0000   1.0000   1.0000   0.0000
     0.0000   0.0000   0.0000

          k = 0.0000 0.3834-0.0000 (  3858 PWs)   bands (ev):

   -26.4658 -26.4491 -19.2524 -16.2060 -12.1741 -10.8233 -10.2059  -8.8244
    -7.5627  -7.3470  -6.6160  -5.8988  -4.9245  -4.2041  -3.3116   2.9312
     4.4859   5.7890   7.4336

     occupation numbers 
     1.0000   1.0000   1.0000   1.0000   1.0000   1.0000   1.0000   1.0000
     1.0000   1.0000   1.0000   1.0000   1.0000   1.0000   1.0000   0.0000
     0.0000   0.0000   0.0000

          k = 0.0000 0.4792-0.0000 (  3837 PWs)   bands (ev):

   -26.2541 -26.2464 -18.0009 -15.2299 -13.9802 -12.1144 -10.0507  -9.0261
    -7.9488  -7.6789  -6.9125  -6.5542  -5.1449  -4.3577  -3.5283   2.9399
     4.3071   5.3367   7.6477

     occupation numbers 
     1.0000   1.0000   1.0000   1.0000   1.0000   1.0000   1.0000   1.0000
     1.0000   1.0000   1.0000   1.0000   1.0000   1.0000   1.0000   0.0000
     0.0000   0.0000   0.0000

          k =-0.0000-0.5751 0.0000 (  3846 PWs)   bands (ev):

   -26.1737 -26.1708 -17.0213 -15.4767 -14.0136 -13.2283  -9.7944  -9.2056
    -8.0832  -7.7592  -7.0187  -6.7868  -5.2312  -4.4103  -3.6009   3.0401
     3.9933   5.2691   8.0120

     occupation numbers 
     1.0000   1.0000   1.0000   1.0000   1.0000   1.0000   1.0000   1.0000
     1.0000   1.0000   1.0000   1.0000   1.0000   1.0000   1.0000   0.0000
     0.0000   0.0000   0.0000

          k = 0.0833-0.0481-0.0000 (  3802 PWs)   bands (ev):

   -27.1891 -27.1395 -21.4457 -18.0486 -12.0432  -9.3259  -6.5150  -5.9682
    -5.8492  -5.6440  -5.4875  -3.5542  -3.3080  -2.4150  -2.0858   2.3493
     4.5013   5.2417   5.3594

     occupation numbers 
     1.0000   1.0000   1.0000   1.0000   1.0000   1.0000   1.0000   1.0000
     1.0000   1.0000   1.0000   1.0000   1.0000   1.0000   1.0000   0.0000
     0.0000   0.0000   0.0000

          k = 0.0833 0.0477-0.0000 (  3800 PWs)   bands (ev):

   -27.1895 -27.1399 -21.4463 -18.0492 -12.0438  -9.3262  -6.5196  -5.9763
    -5.8366  -5.6557  -5.4765  -3.5651  -3.2961  -2.4242  -2.0755   2.3522
     4.5037   5.2618   5.3554

     occupation numbers 
     1.0000   1.0000   1.0000   1.0000   1.0000   1.0000   1.0000   1.0000
     1.0000   1.0000   1.0000   1.0000   1.0000   1.0000   1.0000   0.0000
     0.0000   0.0000   0.0000

          k = 0.0833 0.1436-0.0000 (  3766 PWs)   bands (ev):

   -27.0642 -27.0207 -21.1515 -17.7987 -11.8576  -9.2837  -7.2342  -6.6665
    -6.4033  -6.0284  -5.6259  -3.9888  -3.7905  -3.0110  -2.5380   2.8563
     4.5115   5.6198   5.9039

     occupation numbers 
     1.0000   1.0000   1.0000   1.0000   1.0000   1.0000   1.0000   1.0000
     1.0000   1.0000   1.0000   1.0000   1.0000   1.0000   1.0000   0.0000
     0.0000   0.0000   0.0000

          k = 0.0833 0.2394-0.0000 (  3818 PWs)   bands (ev):

   -26.8401 -26.8071 -20.5630 -17.3010 -11.5303  -9.3382  -8.6479  -7.8433
    -7.1518  -6.6451  -5.9728  -4.6672  -4.3072  -3.7574  -3.0852   3.4265
     4.4736   6.2705   6.7139

     occupation numbers 
     1.0000   1.0000   1.0000   1.0000   1.0000   1.0000   1.0000   1.0000
     1.0000   1.0000   1.0000   1.0000   1.0000   1.0000   1.0000   0.0000
     0.0000   0.0000   0.0000

          k = 0.0833 0.3353-0.0000 (  3844 PWs)   bands (ev):

   -26.5697 -26.5484 -19.6862 -16.5651 -11.4284 -10.5005  -9.6904  -8.6833
    -7.8380  -7.2548  -6.5257  -5.4978  -4.7636  -4.1965  -3.4739   3.5604
     4.6430   6.4366   7.3548

     occupation numbers 
     1.0000   1.0000   1.0000   1.0000   1.0000   1.0000   1.0000   1.0000
     1.0000   1.0000   1.0000   1.0000   1.0000   1.0000   1.0000   0.0000
     0.0000   0.0000   0.0000

          k = 0.0833 0.4311-0.0000 (  3863 PWs)   bands (ev):

   -26.3241 -26.3130 -18.5426 -15.6229 -13.0327 -11.3462 -10.1672  -8.9484
    -8.3042  -7.6419  -7.0711  -6.2145  -5.1188  -4.3840  -3.7366   3.5393
     4.7425   6.0014   7.6967

     occupation numbers 
     1.0000   1.0000   1.0000   1.0000   1.0000   1.0000   1.0000   1.0000
     1.0000   1.0000   1.0000   1.0000   1.0000   1.0000   1.0000   0.0000
     0.0000   0.0000   0.0000

          k = 0.0833-0.6232 0.0000 (  3858 PWs)   bands (ev):

   -26.1763 -26.1720 -17.2656 -15.0778 -14.1820 -12.7481  -9.8360  -9.1725
    -8.5591  -7.7613  -7.3999  -6.6224  -5.3116  -4.4721  -3.8724   3.7203
     4.3051   5.8475   7.9328

     occupation numbers 
     1.0000   1.0000   1.0000   1.0000   1.0000   1.0000   1.0000   1.0000
     1.0000   1.0000   1.0000   1.0000   1.0000   1.0000   1.0000   0.0000
     0.0000   0.0000   0.0000

          k = 0.0833-0.5273 0.0000 (  3860 PWs)   bands (ev):

   -26.1757 -26.1715 -17.2605 -15.0812 -14.1795 -12.7551  -9.8335  -9.1762
    -8.5541  -7.7667  -7.3930  -6.6238  -5.3117  -4.4718  -3.8708   3.7189
     4.3022   5.8454   7.9315

     occupation numbers 
     1.0000   1.0000   1.0000   1.0000   1.0000   1.0000   1.0000   1.0000
     1.0000   1.0000   1.0000   1.0000   1.0000   1.0000   1.0000   0.0000
     0.0000   0.0000   0.0000

          k = 0.0833-0.4315 0.0000 (  3865 PWs)   bands (ev):

   -26.3227 -26.3116 -18.5370 -15.6181 -13.0416 -11.3544 -10.1660  -8.9513
    -8.2933  -7.6505  -7.0577  -6.2187  -5.1197  -4.3826  -3.7322   3.5333
     4.7370   5.9955   7.6912

     occupation numbers 
     1.0000   1.0000   1.0000   1.0000   1.0000   1.0000   1.0000   1.0000
     1.0000   1.0000   1.0000   1.0000   1.0000   1.0000   1.0000   0.0000
     0.0000   0.0000   0.0000

          k = 0.0833-0.3357 0.0000 (  3841 PWs)   bands (ev):

   -26.5679 -26.5467 -19.6818 -16.5612 -11.4310 -10.5061  -9.6986  -8.6848
    -7.8276  -7.2585  -6.5121  -5.5031  -4.7673  -4.1933  -3.4676   3.5515
     4.6352   6.4315   7.3415

     occupation numbers 
     1.0000   1.0000   1.0000   1.0000   1.0000   1.0000   1.0000   1.0000
     1.0000   1.0000   1.0000   1.0000   1.0000   1.0000   1.0000   0.0000
     0.0000   0.0000   0.0000

          k = 0.0833-0.2398 0.0000 (  3819 PWs)   bands (ev):

   -26.8384 -26.8055 -20.5598 -17.2981 -11.5279  -9.3392  -8.6574  -7.8458
    -7.1467  -6.6452  -5.9618  -4.6712  -4.3098  -3.7582  -3.0779   3.4182
     4.4603   6.2693   6.7019

     occupation numbers 
     1.0000   1.0000   1.0000   1.0000   1.0000   1.0000   1.0000   1.0000
     1.0000   1.0000   1.0000   1.0000   1.0000   1.0000   1.0000   0.0000
     0.0000   0.0000   0.0000

          k = 0.0833-0.1440 0.0000 (  3780 PWs)   bands (ev):

   -27.0630 -27.0196 -21.1496 -17.7970 -11.8560  -9.2830  -7.2334  -6.6623
    -6.4071  -6.0326  -5.6205  -3.9890  -3.7902  -3.0133  -2.5377   2.8484
     4.4988   5.6057   5.9074

     occupation numbers 
     1.0000   1.0000   1.0000   1.0000   1.0000   1.0000   1.0000   1.0000
     1.0000   1.0000   1.0000   1.0000   1.0000   1.0000   1.0000   0.0000
     0.0000   0.0000   0.0000

          k = 0.1667-0.0962-0.0000 (  3811 PWs)   bands (ev):

   -27.0017 -26.9612 -20.9989 -17.6691 -11.7651  -9.2759  -7.7014  -7.1070
    -6.3806  -6.1019  -5.8040  -4.2733  -3.6652  -3.5518  -2.5301   2.8815
     4.2579   5.9874   6.2527

     occupation numbers 
     1.0000   1.0000   1.0000   1.0000   1.0000   1.0000   1.0000   1.0000
     1.0000   1.0000   1.0000   1.0000   1.0000   1.0000   1.0000   0.0000
     0.0000   0.0000   0.0000

          k = 0.1667-0.0004-0.0000 (  3784 PWs)   bands (ev):

   -27.0618 -27.0184 -21.1477 -17.7952 -11.8543  -9.2823  -7.2314  -6.6572
    -6.4120  -6.0368  -5.6161  -3.9877  -3.7914  -3.0149  -2.5384   2.8401
     4.4852   5.5926   5.9108

     occupation numbers 
     1.0000   1.0000   1.0000   1.0000   1.0000   1.0000   1.0000   1.0000
     1.0000   1.0000   1.0000   1.0000   1.0000   1.0000   1.0000   0.0000
     0.0000   0.0000   0.0000

          k = 0.1667 0.0955-0.0000 (  3817 PWs)   bands (ev):

   -27.0033 -26.9627 -21.0015 -17.6714 -11.7674  -9.2771  -7.7204  -7.1148
    -6.3603  -6.1106  -5.7883  -4.2823  -3.6506  -3.5603  -2.5150   2.8922
     4.2671   6.0171   6.0997

     occupation numbers 
     1.0000   1.0000   1.0000   1.0000   1.0000   1.0000   1.0000   1.0000
     1.0000   1.0000   1.0000   1.0000   1.0000   1.0000   1.0000   0.0000
     0.0000   0.0000   0.0000

          k = 0.1667 0.1913-0.0000 (  3819 PWs)   bands (ev):

   -26.8389 -26.8059 -20.5610 -17.2991 -11.5283  -9.3355  -8.6277  -7.8376
    -7.1695  -6.6494  -5.9822  -4.6594  -4.3103  -3.7577  -3.1012   3.4156
     4.4741   6.2499   6.6962

     occupation numbers 
     1.0000   1.0000   1.0000   1.0000   1.0000   1.0000   1.0000   1.0000
     1.0000   1.0000   1.0000   1.0000   1.0000   1.0000   1.0000   0.0000
     0.0000   0.0000   0.0000

          k = 0.1667 0.2872-0.0000 (  3841 PWs)   bands (ev):

   -26.6066 -26.5836 -19.8297 -16.6839 -11.2827  -9.7747  -9.7124  -8.4742
    -8.1640  -7.6122  -6.3796  -5.4098  -4.5661  -4.0929  -3.8893   4.3245
     4.6702   6.7212   7.7580

     occupation numbers 
     1.0000   1.0000   1.0000   1.0000   1.0000   1.0000   1.0000   1.0000
     1.0000   1.0000   1.0000   1.0000   1.0000   1.0000   1.0000   0.0000
     0.0000   0.0000   0.0000

          k = 0.1667 0.3830-0.0000 (  3861 PWs)   bands (ev):

   -26.3647 -26.3514 -18.8193 -15.8410 -12.0080 -10.8515 -10.0780  -9.1263
    -8.7979  -8.1843  -7.0001  -6.0001  -4.9966  -4.4673  -4.2207   4.5229
     5.1729   7.1961   7.6209

     occupation numbers 
     1.0000   1.0000   1.0000   1.0000   1.0000   1.0000   1.0000   1.0000
     1.0000   1.0000   1.0000   1.0000   1.0000   1.0000   1.0000   0.0000
     0.0000   0.0000   0.0000

          k = 0.1667-0.6713 0.0000 (  3855 PWs)   bands (ev):

   -26.1806 -26.1746 -17.5816 -14.8656 -13.6415 -11.9882  -9.9825  -9.6385
    -9.0824  -8.2425  -7.6041  -6.3562  -5.4439  -4.5700  -4.4231   4.4322
     5.5345   7.0650   7.5212

     occupation numbers 
     1.0000   1.0000   1.0000   1.0000   1.0000   1.0000   1.0000   1.0000
     1.0000   1.0000   1.0000   1.0000   1.0000   1.0000   1.0000   0.0000
     0.0000   0.0000   0.0000

          k = 0.1667-0.5755 0.0000 (  3868 PWs)   bands (ev):

   -26.1106 -26.1082 -16.6199 -15.0710 -13.6208 -13.0505 -10.1579  -9.4193
    -9.2398  -8.2481  -7.8660  -6.4828  -5.6061  -4.5639  -4.5309   4.4196
     5.4975   7.1216   7.5058

     occupation numbers 
     1.0000   1.0000   1.0000   1.0000   1.0000   1.0000   1.0000   1.0000
     1.0000   1.0000   1.0000   1.0000   1.0000   1.0000   1.0000   0.0000
     0.0000   0.0000   0.0000

          k = 0.1667-0.4796 0.0000 (  3856 PWs)   bands (ev):

   -26.1787 -26.1727 -17.5699 -14.8571 -13.6552 -12.0049  -9.9741  -9.6369
    -9.0800  -8.2473  -7.5937  -6.3632  -5.4444  -4.5742  -4.4144   4.4293
     5.5324   7.0526   7.5263

     occupation numbers 
     1.0000   1.0000   1.0000   1.0000   1.0000   1.0000   1.0000   1.0000
     1.0000   1.0000   1.0000   1.0000   1.0000   1.0000   1.0000   0.0000
     0.0000   0.0000   0.0000

          k = 0.1667-0.3838 0.0000 (  3851 PWs)   bands (ev):

   -26.3615 -26.3483 -18.8092 -15.8319 -12.0231 -10.8620 -10.0806  -9.1226
    -8.7863  -8.1881  -6.9888  -6.0089  -5.0023  -4.4676  -4.2120   4.5175
     5.1656   7.1912   7.6072

     occupation numbers 
     1.0000   1.0000   1.0000   1.0000   1.0000   1.0000   1.0000   1.0000
     1.0000   1.0000   1.0000   1.0000   1.0000   1.0000   1.0000   0.0000
     0.0000   0.0000   0.0000

          k = 0.1667-0.2879 0.0000 (  3843 PWs)   bands (ev):

   -26.6031 -26.5802 -19.8220 -16.6770 -11.2787  -9.7817  -9.7207  -8.4672
    -8.1677  -7.6121  -6.3698  -5.4157  -4.5730  -4.0947  -3.8838   4.3131
     4.6566   6.7038   7.7246

     occupation numbers 
     1.0000   1.0000   1.0000   1.0000   1.0000   1.0000   1.0000   1.0000
     1.0000   1.0000   1.0000   1.0000   1.0000   1.0000   1.0000   0.0000
     0.0000   0.0000   0.0000

          k = 0.1667-0.1921-0.0000 (  3823 PWs)   bands (ev):

   -26.8360 -26.8031 -20.5559 -17.2945 -11.5239  -9.3340  -8.6178  -7.8342
    -7.1818  -6.6543  -5.9801  -4.6560  -4.3160  -3.7587  -3.1095   3.3958
     4.4614   6.2288   6.6631

     occupation numbers 
     1.0000   1.0000   1.0000   1.0000   1.0000   1.0000   1.0000   1.0000
     1.0000   1.0000   1.0000   1.0000   1.0000   1.0000   1.0000   0.0000
     0.0000   0.0000   0.0000

          k = 0.2500-0.1443-0.0000 (  3841 PWs)   bands (ev):

   -26.7353 -26.7068 -20.2574 -17.0430 -11.4052  -9.8122  -9.1443  -8.3718
    -7.0421  -6.7411  -6.2425  -4.9508  -4.5474  -3.9932  -2.9954   2.9880
     4.3003   6.0226   7.0604

     occupation numbers 
     1.0000   1.0000   1.0000   1.0000   1.0000   1.0000   1.0000   1.0000
     1.0000   1.0000   1.0000   1.0000   1.0000   1.0000   1.0000   0.0000
     0.0000   0.0000   0.0000

          k = 0.2500-0.0485-0.0000 (  3821 PWs)   bands (ev):

   -26.8343 -26.8015 -20.5527 -17.2916 -11.5215  -9.3349  -8.6272  -7.8362
    -7.1769  -6.6544  -5.9694  -4.6599  -4.3185  -3.7600  -3.1023   3.3868
     4.4475   6.2294   6.6446

     occupation numbers 
     1.0000   1.0000   1.0000   1.0000   1.0000   1.0000   1.0000   1.0000
     1.0000   1.0000   1.0000   1.0000   1.0000   1.0000   1.0000   0.0000
     0.0000   0.0000   0.0000

          k = 0.2500 0.0474-0.0000 (  3821 PWs)   bands (ev):

   -26.8355 -26.8026 -20.5546 -17.2934 -11.5235  -9.3374  -8.6466  -7.8421
    -7.1595  -6.6498  -5.9604  -4.6674  -4.3154  -3.7598  -3.0867   3.3983
     4.4470   6.2493   6.6649

     occupation numbers 
     1.0000   1.0000   1.0000   1.0000   1.0000   1.0000   1.0000   1.0000
     1.0000   1.0000   1.0000   1.0000   1.0000   1.0000   1.0000   0.0000
     0.0000   0.0000   0.0000

          k = 0.2500 0.1432-0.0000 (  3835 PWs)   bands (ev):

   -26.7386 -26.7101 -20.2632 -17.0485 -11.4114  -9.8269  -9.1576  -8.3801
    -7.0136  -6.7456  -6.2203  -4.9613  -4.5492  -3.9764  -2.9765   3.0191
     4.3031   6.0632   7.0625

     occupation numbers 
     1.0000   1.0000   1.0000   1.0000   1.0000   1.0000   1.0000   1.0000
     1.0000   1.0000   1.0000   1.0000   1.0000   1.0000   1.0000   0.0000
     0.0000   0.0000   0.0000

          k = 0.2500 0.2391-0.0000 (  3850 PWs)   bands (ev):

   -26.5668 -26.5455 -19.6808 -16.5600 -11.4156 -10.4842  -9.6798  -8.6762
    -7.8683  -7.2613  -6.5442  -5.4910  -4.7606  -4.2093  -3.4936   3.5287
     4.6549   6.3895   7.3381

     occupation numbers 
     1.0000   1.0000   1.0000   1.0000   1.0000   1.0000   1.0000   1.0000
     1.0000   1.0000   1.0000   1.0000   1.0000   1.0000   1.0000   0.0000
     0.0000   0.0000   0.0000

          k = 0.2500 0.3349-0.0000 (  3859 PWs)   bands (ev):

   -26.3630 -26.3497 -18.8158 -15.8373 -11.9923 -10.8447 -10.0782  -9.1335
    -8.8050  -8.1937  -7.0058  -5.9976  -4.9943  -4.4728  -4.2316   4.5086
     5.1816   7.1866   7.5692

     occupation numbers 
     1.0000   1.0000   1.0000   1.0000   1.0000   1.0000   1.0000   1.0000
     1.0000   1.0000   1.0000   1.0000   1.0000   1.0000   1.0000   0.0000
     0.0000   0.0000   0.0000

          k = 0.2500-0.7194 0.0000 (  3868 PWs)   bands (ev):

   -26.1816 -26.1748 -17.6979 -14.9130 -12.8737 -11.8685  -9.9971  -9.9586
    -9.5543  -8.4552  -7.5640  -6.2629  -5.2971  -4.9875  -4.5048   4.7249
     5.9939   6.9192   9.1424

     occupation numbers 
     1.0000   1.0000   1.0000   1.0000   1.0000   1.0000   1.0000   1.0000
     1.0000   1.0000   1.0000   1.0000   1.0000   1.0000   1.0000   0.0000
     0.0000   0.0000   0.0000

          k = 0.2500-0.6236 0.0000 (  3836 PWs)   bands (ev):

   -26.0738 -26.0713 -16.4819 -14.3156 -13.6552 -12.7345 -10.9517 -10.2478
    -9.1428  -8.5278  -8.0587  -6.2363  -5.7206  -5.2159  -4.5910   4.7759
     5.8623   7.6484   8.6959

     occupation numbers 
     1.0000   1.0000   1.0000   1.0000   1.0000   1.0000   1.0000   1.0000
     1.0000   1.0000   1.0000   1.0000   1.0000   1.0000   1.0000   0.0000
     0.0000   0.0000   0.0000

          k = 0.2500-0.5277 0.0000 (  3842 PWs)   bands (ev):

   -26.0724 -26.0700 -16.4665 -14.3275 -13.6396 -12.7578 -10.9494 -10.2444
    -9.1432  -8.5287  -8.0554  -6.2419  -5.7204  -5.2154  -4.5896   4.7746
     5.8647   7.6502   8.6870

     occupation numbers 
     1.0000   1.0000   1.0000   1.0000   1.0000   1.0000   1.0000   1.0000
     1.0000   1.0000   1.0000   1.0000   1.0000   1.0000   1.0000   0.0000
     0.0000   0.0000   0.0000

          k = 0.2500-0.4319 0.0000 (  3867 PWs)   bands (ev):

   -26.1779 -26.1711 -17.6808 -14.8965 -12.8919 -11.8839  -9.9942  -9.9519
    -9.5587  -8.4561  -7.5582  -6.2715  -5.3026  -4.9874  -4.5016   4.7220
     5.9996   6.9093   9.1010

     occupation numbers 
     1.0000   1.0000   1.0000   1.0000   1.0000   1.0000   1.0000   1.0000
     1.0000   1.0000   1.0000   1.0000   1.0000   1.0000   1.0000   0.0000
     0.0000   0.0000   0.0000

          k = 0.2500-0.3360-0.0000 (  3861 PWs)   bands (ev):

   -26.3581 -26.3448 -18.8022 -15.8245 -11.9919 -10.8486 -10.0810  -9.1365
    -8.8010  -8.2065  -7.0001  -6.0040  -4.9977  -4.4786  -4.2334   4.4876
     5.1836   7.1721   7.5040

     occupation numbers 
     1.0000   1.0000   1.0000   1.0000   1.0000   1.0000   1.0000   1.0000
     1.0000   1.0000   1.0000   1.0000   1.0000   1.0000   1.0000   0.0000
     0.0000   0.0000   0.0000

          k = 0.2500-0.2402-0.0000 (  3850 PWs)   bands (ev):

   -26.5621 -26.5409 -19.6710 -16.5509 -11.4055 -10.4736  -9.6778  -8.6705
    -7.8877  -7.2721  -6.5486  -5.4898  -4.7613  -4.2187  -3.5069   3.4875
     4.6585   6.3378   7.3082

     occupation numbers 
     1.0000   1.0000   1.0000   1.0000   1.0000   1.0000   1.0000   1.0000
     1.0000   1.0000   1.0000   1.0000   1.0000   1.0000   1.0000   0.0000
     0.0000   0.0000   0.0000

          k = 0.3333-0.1925-0.0000 (  3869 PWs)   bands (ev):

   -26.4555 -26.4389 -19.2308 -16.1851 -12.1387 -10.7946 -10.1927  -8.8113
    -7.6325  -7.3449  -6.6720  -5.8877  -4.9205  -4.2414  -3.3543   2.8397
     4.4863   5.7149   7.3692

     occupation numbers 
     1.0000   1.0000   1.0000   1.0000   1.0000   1.0000   1.0000   1.0000
     1.0000   1.0000   1.0000   1.0000   1.0000   1.0000   1.0000   0.0000
     0.0000   0.0000   0.0000

          k = 0.3333-0.0966-0.0000 (  3848 PWs)   bands (ev):

   -26.5602 -26.5391 -19.6666 -16.5469 -11.4079 -10.4793  -9.6862  -8.6719
    -7.8769  -7.2760  -6.5351  -5.4953  -4.7650  -4.2155  -3.5005   3.4780
     4.6504   6.3324   7.2956

     occupation numbers 
     1.0000   1.0000   1.0000   1.0000   1.0000   1.0000   1.0000   1.0000
     1.0000   1.0000   1.0000   1.0000   1.0000   1.0000   1.0000   0.0000
     0.0000   0.0000   0.0000

          k = 0.3333-0.0008-0.0000 (  3837 PWs)   bands (ev):

   -26.5995 -26.5767 -19.8142 -16.6699 -11.2745  -9.7848  -9.7317  -8.4604
    -8.1719  -7.6119  -6.3603  -5.4214  -4.5798  -4.0961  -3.8790   4.3027
     4.6408   6.6875   7.6957

     occupation numbers 
     1.0000   1.0000   1.0000   1.0000   1.0000   1.0000   1.0000   1.0000
     1.0000   1.0000   1.0000   1.0000   1.0000   1.0000   1.0000   0.0000
     0.0000   0.0000   0.0000

          k = 0.3333 0.0951-0.0000 (  3848 PWs)   bands (ev):

   -26.5631 -26.5420 -19.6719 -16.5520 -11.4206 -10.4954  -9.6964  -8.6791
    -7.8472  -7.2689  -6.5171  -5.5019  -4.7680  -4.2029  -3.4810   3.5103
     4.6390   6.3790   7.3122

     occupation numbers 
     1.0000   1.0000   1.0000   1.0000   1.0000   1.0000   1.0000   1.0000
     1.0000   1.0000   1.0000   1.0000   1.0000   1.0000   1.0000   0.0000
     0.0000   0.0000   0.0000

          k = 0.3333 0.1909-0.0000 (  3861 PWs)   bands (ev):

   -26.4606 -26.4439 -19.2416 -16.1955 -12.1563 -10.8089 -10.1993  -8.8179
    -7.5977  -7.3461  -6.6440  -5.8932  -4.9226  -4.2228  -3.3330   2.8856
     4.4869   5.7511   7.4010

     occupation numbers 
     1.0000   1.0000   1.0000   1.0000   1.0000   1.0000   1.0000   1.0000
     1.0000   1.0000   1.0000   1.0000   1.0000   1.0000   1.0000   0.0000
     0.0000   0.0000   0.0000

          k = 0.3333 0.2868-0.0000 (  3873 PWs)   bands (ev):

   -26.3193 -26.3082 -18.5318 -15.6110 -13.0151 -11.3296 -10.1628  -8.9440
    -8.3393  -7.6445  -7.0977  -6.2103  -5.1193  -4.3979  -3.7575   3.4981
     4.7547   5.9535   7.6599

     occupation numbers 
     1.0000   1.0000   1.0000   1.0000   1.0000   1.0000   1.0000   1.0000
     1.0000   1.0000   1.0000   1.0000   1.0000   1.0000   1.0000   0.0000
     0.0000   0.0000   0.0000

          k = 0.3333-0.7675 0.0000 (  3854 PWs)   bands (ev):

   -26.1770 -26.1710 -17.5716 -14.8489 -13.6344 -11.9768  -9.9953  -9.6465
    -9.0891  -8.2514  -7.6120  -6.3526  -5.4478  -4.5758  -4.4363   4.4330
     5.5126   7.0526   7.4681

     occupation numbers 
     1.0000   1.0000   1.0000   1.0000   1.0000   1.0000   1.0000   1.0000
     1.0000   1.0000   1.0000   1.0000   1.0000   1.0000   1.0000   0.0000
     0.0000   0.0000   0.0000

          k = 0.3333-0.6717 0.0000 (  3849 PWs)   bands (ev):

   -26.0720 -26.0695 -16.4730 -14.2871 -13.6780 -12.7302 -10.9562 -10.2618
    -9.1392  -8.5270  -8.0623  -6.2343  -5.7235  -5.2217  -4.5921   4.7839
     5.8517   7.6459   8.6699

     occupation numbers 
     1.0000   1.0000   1.0000   1.0000   1.0000   1.0000   1.0000   1.0000
     1.0000   1.0000   1.0000   1.0000   1.0000   1.0000   1.0000   0.0000
     0.0000   0.0000   0.0000

          k = 0.3333-0.5758 0.0000 (  3833 PWs)   bands (ev):

   -26.0321 -26.0313 -15.7958 -13.9722 -13.9693 -12.8973 -11.1344 -11.1301
    -8.6310  -8.5693  -8.5667  -5.8559  -5.8194  -5.8168  -4.6174   5.2427
     5.2572   8.4554   9.2223

     occupation numbers 
     1.0000   1.0000   1.0000   1.0000   1.0000   1.0000   1.0000   1.0000
     1.0000   1.0000   1.0000   1.0000   1.0000   1.0000   1.0000   0.0000
     0.0000   0.0000   0.0000

          k = 0.3333-0.4800-0.0000 (  3850 PWs)   bands (ev):

   -26.0688 -26.0663 -16.4487 -14.2712 -13.6847 -12.7491 -10.9583 -10.2723
    -9.1359  -8.5272  -8.0626  -6.2379  -5.7261  -5.2270  -4.5919   4.7905
     5.8435   7.6440   8.6328

     occupation numbers 
     1.0000   1.0000   1.0000   1.0000   1.0000   1.0000   1.0000   1.0000
     1.0000   1.0000   1.0000   1.0000   1.0000   1.0000   1.0000   0.0000
     0.0000   0.0000   0.0000

          k = 0.3333-0.3841-0.0000 (  3849 PWs)   bands (ev):

   -26.1716 -26.1656 -17.5501 -14.8238 -13.6411 -11.9825 -10.0001  -9.6521
    -9.0938  -8.2646  -7.6097  -6.3561  -5.4520  -4.5861  -4.4405   4.4297
     5.4883   7.0256   7.4219

     occupation numbers 
     1.0000   1.0000   1.0000   1.0000   1.0000   1.0000   1.0000   1.0000
     1.0000   1.0000   1.0000   1.0000   1.0000   1.0000   1.0000   0.0000
     0.0000   0.0000   0.0000

          k = 0.3333-0.2883-0.0000 (  3867 PWs)   bands (ev):

   -26.3132 -26.3022 -18.5156 -15.5946 -13.0066 -11.3213 -10.1571  -8.9430
    -8.3627  -7.6565  -7.1102  -6.2104  -5.1207  -4.4102  -3.7739   3.4497
     4.7617   5.8997   7.6190

     occupation numbers 
     1.0000   1.0000   1.0000   1.0000   1.0000   1.0000   1.0000   1.0000
     1.0000   1.0000   1.0000   1.0000   1.0000   1.0000   1.0000   0.0000
     0.0000   0.0000   0.0000

          k = 0.4167-0.2406-0.0000 (  3849 PWs)   bands (ev):

   -26.2409 -26.2333 -17.9643 -15.1830 -13.9699 -12.0907 -10.0357  -9.0126
    -8.0261  -7.6802  -6.9760  -6.5492  -5.1414  -4.3974  -3.5734   2.8278
     4.3232   5.2403   7.6005

     occupation numbers 
     1.0000   1.0000   1.0000   1.0000   1.0000   1.0000   1.0000   1.0000
     1.0000   1.0000   1.0000   1.0000   1.0000   1.0000   1.0000   0.0000
     0.0000   0.0000   0.0000

          k = 0.4167-0.1447-0.0000 (  3867 PWs)   bands (ev):

   -26.3118 -26.3008 -18.5100 -15.5897 -13.0156 -11.3297 -10.1558  -8.9461
    -8.3512  -7.6657  -7.0963  -6.2148  -5.1216  -4.4089  -3.7694   3.4433
     4.7560   5.8938   7.6145

     occupation numbers 
     1.0000   1.0000   1.0000   1.0000   1.0000   1.0000   1.0000   1.0000
     1.0000   1.0000   1.0000   1.0000   1.0000   1.0000   1.0000   0.0000
     0.0000   0.0000   0.0000

          k = 0.4167-0.0489-0.0000 (  3861 PWs)   bands (ev):

   -26.3548 -26.3416 -18.7919 -15.8152 -12.0070 -10.8591 -10.0834  -9.1329
    -8.7896  -8.2103  -6.9890  -6.0128  -5.0035  -4.4789  -4.2245   4.4820
     5.1753   7.1687   7.4896

     occupation numbers 
     1.0000   1.0000   1.0000   1.0000   1.0000   1.0000   1.0000   1.0000
     1.0000   1.0000   1.0000   1.0000   1.0000   1.0000   1.0000   0.0000
     0.0000   0.0000   0.0000

          k = 0.4167 0.0470-0.0000 (  3859 PWs)   bands (ev):

   -26.3565 -26.3433 -18.7955 -15.8189 -12.0225 -10.8656 -10.0832  -9.1262
    -8.7821  -8.2012  -6.9834  -6.0152  -5.0058  -4.4733  -4.2139   4.4977
     5.1659   7.1783   7.5411

     occupation numbers 
     1.0000   1.0000   1.0000   1.0000   1.0000   1.0000   1.0000   1.0000
     1.0000   1.0000   1.0000   1.0000   1.0000   1.0000   1.0000   0.0000
     0.0000   0.0000   0.0000

          k = 0.4167 0.1428-0.0000 (  3863 PWs)   bands (ev):

   -26.3165 -26.3054 -18.5207 -15.6013 -13.0332 -11.3461 -10.1603  -8.9500
    -8.3168  -7.6624  -7.0705  -6.2190  -5.1211  -4.3952  -3.7486   3.4857
     4.7436   5.9417   7.6499

     occupation numbers 
     1.0000   1.0000   1.0000   1.0000   1.0000   1.0000   1.0000   1.0000
     1.0000   1.0000   1.0000   1.0000   1.0000   1.0000   1.0000   0.0000
     0.0000   0.0000   0.0000

          k = 0.4167 0.2387-0.0000 (  3841 PWs)   bands (ev):

   -26.2474 -26.2398 -17.9825 -15.2062 -13.9752 -12.1025 -10.0432  -9.0193
    -7.9874  -7.6798  -6.9441  -6.5517  -5.1432  -4.3776  -3.5509   2.8841
     4.3153   5.2885   7.6235

     occupation numbers 
     1.0000   1.0000   1.0000   1.0000   1.0000   1.0000   1.0000   1.0000
     1.0000   1.0000   1.0000   1.0000   1.0000   1.0000   1.0000   0.0000
     0.0000   0.0000   0.0000

          k = 0.4167-0.8156 0.0000 (  3870 PWs)   bands (ev):

   -26.1701 -26.1658 -17.2445 -15.0486 -14.1847 -12.7384  -9.8307  -9.1676
    -8.5942  -7.7609  -7.4305  -6.6212  -5.3137  -4.4861  -3.8931   3.6685
     4.3100   5.8002   7.9064

     occupation numbers 
     1.0000   1.0000   1.0000   1.0000   1.0000   1.0000   1.0000   1.0000
     1.0000   1.0000   1.0000   1.0000   1.0000   1.0000   1.0000   0.0000
     0.0000   0.0000   0.0000

          k = 0.4167-0.7198 0.0000 (  3865 PWs)   bands (ev):

   -26.1056 -26.1032 -16.5931 -15.0562 -13.6126 -13.0555 -10.1778  -9.4250
    -9.2382  -8.2636  -7.8678  -6.4817  -5.6121  -4.5703  -4.5426   4.4324
     5.4472   7.1055   7.4635

     occupation numbers 
     1.0000   1.0000   1.0000   1.0000   1.0000   1.0000   1.0000   1.0000
     1.0000   1.0000   1.0000   1.0000   1.0000   1.0000   1.0000   0.0000
     0.0000   0.0000   0.0000

          k = 0.4167-0.6240-0.0000 (  3841 PWs)   bands (ev):

   -26.0691 -26.0667 -16.4418 -14.3124 -13.6450 -12.7771 -10.9517 -10.2551
    -9.1398  -8.5289  -8.0557  -6.2456  -5.7232  -5.2207  -4.5893   4.7814
     5.8563   7.6495   8.6525

     occupation numbers 
     1.0000   1.0000   1.0000   1.0000   1.0000   1.0000   1.0000   1.0000
     1.0000   1.0000   1.0000   1.0000   1.0000   1.0000   1.0000   0.0000
     0.0000   0.0000   0.0000

          k = 0.4167-0.5281-0.0000 (  3846 PWs)   bands (ev):

   -26.0673 -26.0649 -16.4329 -14.2848 -13.6672 -12.7728 -10.9561 -10.2689
    -9.1362  -8.5282  -8.0593  -6.2437  -5.7259  -5.2265  -4.5905   4.7894
     5.8457   7.6457   8.6245

     occupation numbers 
     1.0000   1.0000   1.0000   1.0000   1.0000   1.0000   1.0000   1.0000
     1.0000   1.0000   1.0000   1.0000   1.0000   1.0000   1.0000   0.0000
     0.0000   0.0000   0.0000

          k = 0.4167-0.4323-0.0000 (  3869 PWs)   bands (ev):

   -26.1006 -26.0983 -16.5664 -15.0421 -13.6033 -13.0611 -10.1978  -9.4311
    -9.2362  -8.2784  -7.8701  -6.4805  -5.6181  -4.5736  -4.5572   4.4452
     5.3958   7.0872   7.4216

     occupation numbers 
     1.0000   1.0000   1.0000   1.0000   1.0000   1.0000   1.0000   1.0000
     1.0000   1.0000   1.0000   1.0000   1.0000   1.0000   1.0000   0.0000
     0.0000   0.0000   0.0000

          k = 0.4167-0.3364-0.0000 (  3868 PWs)   bands (ev):

   -26.1634 -26.1592 -17.2184 -15.0232 -14.1847 -12.7357  -9.8232  -9.1668
    -8.6239  -7.7659  -7.4540  -6.6213  -5.3160  -4.4995  -3.9121   3.6128
     4.3145   5.7494   7.8801

     occupation numbers 
     1.0000   1.0000   1.0000   1.0000   1.0000   1.0000   1.0000   1.0000
     1.0000   1.0000   1.0000   1.0000   1.0000   1.0000   1.0000   0.0000
     0.0000   0.0000   0.0000

          k =-0.5000 0.2887 0.0000 (  3858 PWs)   bands (ev):

   -26.1595 -26.1565 -16.9612 -15.4443 -13.9891 -13.2268  -9.7748  -9.1944
    -8.1631  -7.7607  -7.0847  -6.7838  -5.2281  -4.4510  -3.6468   2.9090
     4.0200   5.1653   8.0003

     occupation numbers 
     1.0000   1.0000   1.0000   1.0000   1.0000   1.0000   1.0000   1.0000
     1.0000   1.0000   1.0000   1.0000   1.0000   1.0000   1.0000   0.0000
     0.0000   0.0000   0.0000

          k =-0.5000 0.3845 0.0000 (  3866 PWs)   bands (ev):

   -26.1629 -26.1587 -17.2132 -15.0270 -14.1819 -12.7429  -9.8206  -9.1708
    -8.6185  -7.7723  -7.4460  -6.6229  -5.3162  -4.4993  -3.9104   3.6109
     4.3117   5.7473   7.8798

     occupation numbers 
     1.0000   1.0000   1.0000   1.0000   1.0000   1.0000   1.0000   1.0000
     1.0000   1.0000   1.0000   1.0000   1.0000   1.0000   1.0000   0.0000
     0.0000   0.0000   0.0000

          k =-0.5000 0.4804 0.0000 (  3852 PWs)   bands (ev):

   -26.1696 -26.1637 -17.5381 -14.8147 -13.6555 -11.9995  -9.9915  -9.6503
    -9.0916  -8.2691  -7.5996  -6.3633  -5.4524  -4.5905  -4.4315   4.4269
     5.4850   7.0133   7.4274

     occupation numbers 
     1.0000   1.0000   1.0000   1.0000   1.0000   1.0000   1.0000   1.0000
     1.0000   1.0000   1.0000   1.0000   1.0000   1.0000   1.0000   0.0000
     0.0000   0.0000   0.0000

          k =-0.5000 0.5762 0.0000 (  3867 PWs)   bands (ev):

   -26.1740 -26.1673 -17.6634 -14.8794 -12.9102 -11.8995  -9.9890  -9.9479
    -9.5630  -8.4569  -7.5524  -6.2803  -5.3083  -4.9872  -4.4984   4.7195
     6.0045   6.8998   9.0681

     occupation numbers 
     1.0000   1.0000   1.0000   1.0000   1.0000   1.0000   1.0000   1.0000
     1.0000   1.0000   1.0000   1.0000   1.0000   1.0000   1.0000   0.0000
     0.0000   0.0000   0.0000

          k =-0.5000 0.6721 0.0000 (  3856 PWs)   bands (ev):

   -26.1732 -26.1672 -17.5480 -14.8313 -13.6624 -12.0105  -9.9783  -9.6432
    -9.0845  -8.2607  -7.5915  -6.3668  -5.4487  -4.5844  -4.4187   4.4273
     5.5072   7.0277   7.4787

     occupation numbers 
     1.0000   1.0000   1.0000   1.0000   1.0000   1.0000   1.0000   1.0000
     1.0000   1.0000   1.0000   1.0000   1.0000   1.0000   1.0000   0.0000
     0.0000   0.0000   0.0000

          k =-0.5000 0.7679 0.0000 (  3868 PWs)   bands (ev):

   -26.1690 -26.1648 -17.2341 -15.0558 -14.1794 -12.7526  -9.8257  -9.1753
    -8.5839  -7.7727  -7.4155  -6.6242  -5.3140  -4.4855  -3.8897   3.6652
     4.3044   5.7960   7.9050

     occupation numbers 
     1.0000   1.0000   1.0000   1.0000   1.0000   1.0000   1.0000   1.0000
     1.0000   1.0000   1.0000   1.0000   1.0000   1.0000   1.0000   0.0000
     0.0000   0.0000   0.0000

          k =-0.5000-0.2864 0.0001 (  3844 PWs)   bands (ev):

   -26.1666 -26.1636 -16.9911 -15.4602 -14.0016 -13.2275  -9.7846  -9.2000
    -8.1231  -7.7602  -7.0515  -6.7853  -5.2297  -4.4306  -3.6239   2.9745
     4.0067   5.2176   8.0054

     occupation numbers 
     1.0000   1.0000   1.0000   1.0000   1.0000   1.0000   1.0000   1.0000
     1.0000   1.0000   1.0000   1.0000   1.0000   1.0000   1.0000   0.0000
     0.0000   0.0000   0.0000

     the Fermi energy is     0.3748 ev

!    total energy              =    -189.94138664 Ry
     Harris-Foulkes estimate   =    -189.94138673 Ry
     estimated scf accuracy    <       0.00000011 Ry

     total all-electron energy =      -701.913501 Ry

     The total energy is the sum of the following terms:

     one-electron contribution =   -1535.92535167 Ry
     hartree contribution      =     777.71421433 Ry
     xc contribution           =     -37.23880658 Ry
     ewald contribution        =     650.50674614 Ry
     one-center paw contrib.   =     -44.99818886 Ry
      -> PAW hartree energy AE =     118.26356768 Ry
      -> PAW hartree energy PS =    -118.18354084 Ry
      -> PAW xc energy AE      =     -80.63732581 Ry
      -> PAW xc energy PS      =      35.55911011 Ry
      -> total E_H with PAW    =     777.79424116 Ry
      -> total E_XC with PAW   =     -82.31702228 Ry
     smearing contrib. (-TS)   =      -0.00000000 Ry

     convergence has been achieved in   8 iterations

     negative rho (up, down):  6.334E-04 0.000E+00

     Forces acting on atoms (cartesian axes, Ry/au):

     atom    1 type  1   force =     0.00022045   -0.00034994   -0.01044695
     atom    2 type  1   force =    -0.00029369    0.00046479    0.00178586
     atom    3 type  1   force =    -0.00021947    0.00034938    0.01038179
     atom    4 type  1   force =     0.00029147   -0.00046588   -0.00187996
     atom    5 type  2   force =     0.00003424   -0.00004958    0.01661823
     atom    6 type  2   force =    -0.00003299    0.00005123   -0.01645898
     The non-local contrib.  to forces
     atom    1 type  1   force =     0.00132239   -0.00228475   -0.40902316
     atom    2 type  1   force =    -0.00127693    0.00217667    0.09337554
     atom    3 type  1   force =    -0.00132477    0.00228281    0.40906943
     atom    4 type  1   force =     0.00127449   -0.00217831   -0.09330158
     atom    5 type  2   force =    -0.00022407    0.00049263    3.17674808
     atom    6 type  2   force =     0.00024857   -0.00047620   -3.17653305
     The ionic contribution  to forces
     atom    1 type  1   force =     0.01377197   -0.02381425  -13.78912778
     atom    2 type  1   force =    -0.01423404    0.02477448   -9.50533758
     atom    3 type  1   force =    -0.01373265    0.02383601   13.78928902
     atom    4 type  1   force =     0.01422477   -0.02477904    9.50531656
     atom    5 type  2   force =     0.00148613   -0.00273018  -68.13936688
     atom    6 type  2   force =    -0.00151618    0.00271299   68.13922666
     The local contribution  to forces
     atom    1 type  1   force =    -0.01478752    0.02560031   14.17949079
     atom    2 type  1   force =     0.01512920   -0.02633220    9.41619396
     atom    3 type  1   force =     0.01474994   -0.02562030  -14.17942636
     atom    4 type  1   force =    -0.01511874    0.02633716   -9.41589453
     atom    5 type  2   force =    -0.00122879    0.00219190   64.98990311
     atom    6 type  2   force =     0.00123613   -0.00218847  -64.98982238
     The core correction contribution to forces
     atom    1 type  1   force =    -0.00008669    0.00014963    0.00882283
     atom    2 type  1   force =     0.00008765   -0.00015275   -0.00187335
     atom    3 type  1   force =     0.00008874   -0.00014894   -0.00890342
     atom    4 type  1   force =    -0.00008839    0.00015353    0.00172523
     atom    5 type  2   force =     0.00000070   -0.00000313   -0.01026096
     atom    6 type  2   force =    -0.00000039    0.00000249    0.01026176
     The Hubbard contrib.    to forces
     atom    1 type  1   force =     0.00000000    0.00000000    0.00000000
     atom    2 type  1   force =     0.00000000    0.00000000    0.00000000
     atom    3 type  1   force =     0.00000000    0.00000000    0.00000000
     atom    4 type  1   force =     0.00000000    0.00000000    0.00000000
     atom    5 type  2   force =     0.00000000    0.00000000    0.00000000
     atom    6 type  2   force =     0.00000000    0.00000000    0.00000000
     The SCF correction term to forces
     atom    1 type  1   force =     0.00000045   -0.00000053   -0.00062028
     atom    2 type  1   force =     0.00000059   -0.00000108   -0.00058337
     atom    3 type  1   force =    -0.00000059    0.00000015    0.00034247
     atom    4 type  1   force =    -0.00000050    0.00000113    0.00026371
     atom    5 type  2   force =     0.00000041   -0.00000046   -0.00041578
     atom    6 type  2   force =    -0.00000097    0.00000076    0.00039736

     Total force =     0.027779     Total SCF correction =     0.001115


     Computing stress (Cartesian axis) and pressure


     negative rho (up, down):  6.334E-04 0.000E+00
          total   stress  (Ry/bohr**3)                   (kbar)     P=   -4.59
   0.00006686  -0.00001732  -0.00000070          9.84     -2.55     -0.10
  -0.00001732   0.00000686   0.00000110         -2.55      1.01      0.16
  -0.00000070   0.00000110  -0.00016726         -0.10      0.16    -24.60

     kinetic stress (kbar)   9394.76     -2.57      0.46
                               -2.57   9385.79     -0.84
                                0.46     -0.84   8511.82

     local   stress (kbar)-298656.40     14.98      9.67
                               14.98-298603.79    -16.94
                                9.67    -16.94 288220.43

     nonloc. stress (kbar)   3208.89     -0.07     -0.15
                               -0.07   3208.65      0.25
                               -0.15      0.25   2938.13

     hartree stress (kbar) 147223.74     -5.02     -2.33
                               -5.02 147206.05      4.09
                               -2.33      4.09-142658.47

     exc-cor stress (kbar)  -1157.32     -0.02     -0.01
                               -0.02  -1157.38      0.02
                               -0.01      0.02  -1154.27

     corecor stress (kbar)   -959.91      0.05      0.03
                                0.05   -959.74     -0.04
                                0.03     -0.04   -951.44

     ewald   stress (kbar) 140956.08     -9.90     -7.77
                               -9.90 140921.44     13.63
                               -7.77     13.63-154930.80

     hubbard stress (kbar)      0.00      0.00      0.00
                                0.00      0.00      0.00
                                0.00      0.00      0.00

     london  stress (kbar)      0.00      0.00      0.00
                                0.00      0.00      0.00
                                0.00      0.00      0.00

     DFT-D3  stress (kbar)      0.00      0.00      0.00
                                0.00      0.00      0.00
                                0.00      0.00      0.00

     XDM     stress (kbar)      0.00      0.00      0.00
                                0.00      0.00      0.00
                                0.00      0.00      0.00

     dft-nl  stress (kbar)      0.00      0.00      0.00
                                0.00      0.00      0.00
                                0.00      0.00      0.00

     TS-vdW  stress (kbar)      0.00      0.00      0.00
                                0.00      0.00      0.00
                                0.00      0.00      0.00

     3D-RISM stress (kbar)      0.00      0.00      0.00
                                0.00      0.00      0.00
                                0.00      0.00      0.00



     Writing output data file pwscf.save\

     init_run     :     14.92s CPU      7.71s WALL (       1 calls)
     electrons    :     90.89s CPU     62.28s WALL (       1 calls)
     forces       :      8.38s CPU      1.51s WALL (       1 calls)
     stress       :     21.09s CPU      4.75s WALL (       1 calls)

     Called by init_run:
     wfcinit      :      4.41s CPU      3.08s WALL (       1 calls)
     wfcinit:atom :      0.20s CPU      0.07s WALL (      74 calls)
     wfcinit:wfcr :      3.25s CPU      2.31s WALL (      74 calls)
     potinit      :      3.94s CPU      0.57s WALL (       1 calls)
     hinit0       :      6.41s CPU      3.94s WALL (       1 calls)

     Called by electrons:
     c_bands      :     69.75s CPU     50.64s WALL (       8 calls)
     sum_band     :     16.62s CPU      9.48s WALL (       8 calls)
     v_of_rho     :      1.39s CPU      0.53s WALL (       9 calls)
     v_h          :      0.06s CPU      0.04s WALL (       9 calls)
     v_xc         :      1.59s CPU      0.60s WALL (      11 calls)
     newd         :      0.94s CPU      0.55s WALL (       9 calls)
     PAW_pot      :      2.28s CPU      1.18s WALL (       9 calls)
     mix_rho      :      0.30s CPU      0.08s WALL (       8 calls)

     Called by c_bands:
     init_us_2    :      1.73s CPU      0.80s WALL (    1406 calls)
     cegterg      :     67.33s CPU     49.17s WALL (     592 calls)

     Called by sum_band:
     sum_band:bec :      0.23s CPU      0.38s WALL (     592 calls)
     addusdens    :      1.19s CPU      0.78s WALL (       8 calls)

     Called by *egterg:
     h_psi        :     62.22s CPU     40.05s WALL (    2755 calls)
     s_psi        :      1.53s CPU      1.59s WALL (    2755 calls)
     g_psi        :      0.30s CPU      0.31s WALL (    2089 calls)
     cdiaghg      :      1.77s CPU      1.76s WALL (    2681 calls)
     cegterg:over :      1.94s CPU      2.52s WALL (    2089 calls)
     cegterg:upda :      0.88s CPU      1.97s WALL (    2089 calls)
     cegterg:last :      0.34s CPU      0.56s WALL (     594 calls)

     Called by h_psi:
     h_psi:pot    :     61.55s CPU     39.27s WALL (    2755 calls)
     h_psi:calbec :      3.89s CPU      1.90s WALL (    2755 calls)
     vloc_psi     :     55.86s CPU     35.55s WALL (    2755 calls)
     add_vuspsi   :      1.78s CPU      1.81s WALL (    2755 calls)

     General routines
     calbec       :      5.30s CPU      2.77s WALL (    3717 calls)
     fft          :      0.16s CPU      0.09s WALL (     140 calls)
     ffts         :      0.00s CPU      0.00s WALL (      17 calls)
     fftw         :     31.36s CPU     19.00s WALL (   78360 calls)
     interpolate  :      0.02s CPU      0.02s WALL (       9 calls)

     Parallel routines

     PAW routines
     PAW_pot      :      2.28s CPU      1.18s WALL (       9 calls)

     PWSCF        :   2m17.20s CPU   1m18.78s WALL


   This run was terminated on:  14:18:19   1Dec2024            

=------------------------------------------------------------------------------=
   JOB DONE.
=------------------------------------------------------------------------------=
