
     Program PWSCF v.6.4.1 starts on  1Dec2024 at 14:21: 1 

     This program is part of the open-source Quantum ESPRESSO suite
     for quantum simulation of materials; please cite
         "P. Giannozzi et al., J. Phys.:Condens. Matter 21 395502 (2009);
         "P. Giannozzi et al., J. Phys.:Condens. Matter 29 465901 (2017);
          URL http://www.quantum-espresso.org", 
     in publications or presentations arising from this work. More details at
     http://www.quantum-espresso.org/quote

     Parallel version (MPI & OpenMP), running on      12 processor cores
     Number of MPI processes:                 1
     Threads/MPI process:                    12

     MPI processes distributed on     1 nodes
     Waiting for input...
     Reading input from standard input
Warning: card &IONS ignored
Warning: card ION_DYNAMICS = 'BFGS' ignored
Warning: card / ignored
Warning: card &CELL ignored
Warning: card CELL_DOFREE = 'ALL' ignored
Warning: card CELL_DYNAMICS = 'BFGS' ignored
Warning: card PRESS = 0.0 ignored
Warning: card PRESS_CONV_THR = 0.5 ignored
Warning: card / ignored

     Current dimensions of program PWSCF are:
     Max number of different atomic species (ntypx) = 10
     Max number of k-points (npk) =  40000
     Max angular momentum in pseudopotentials (lmaxx) =  3
               file C.pbesol-n-kjpaw_psl.1.0.0.UPF: wavefunction(s)  2S 2P renormalized
               file F.pbesol-n-kjpaw_psl.1.0.0.UPF: wavefunction(s)  2S 2P renormalized

     Subspace diagonalization in iterative solution of the eigenvalue problem:
     a serial algorithm will be used


     G-vector sticks info
     --------------------
     sticks:   dense  smooth     PW     G-vecs:    dense   smooth      PW
     Sum         583     295     97                88185    31147    6257



     bravais-lattice index     =            0
     lattice parameter (alat)  =       4.8491  a.u.
     unit-cell volume          =     762.7203 (a.u.)^3
     number of atoms/cell      =            6
     number of atomic types    =            2
     number of electrons       =        30.00
     number of Kohn-Sham states=           19
     kinetic-energy cutoff     =      45.0000  Ry
     charge density cutoff     =     360.0000  Ry
     convergence threshold     =      1.0E-06
     mixing beta               =       0.7000
     number of iterations used =            8  plain     mixing
     Exchange-correlation      = SLA PW PSX PSC ( 1  4 10  8 0 0)

     celldm(1)=   4.849059  celldm(2)=   0.000000  celldm(3)=   0.000000
     celldm(4)=   0.000000  celldm(5)=   0.000000  celldm(6)=   0.000000

     crystal axes: (cart. coord. in units of alat)
               a(1) = (   1.000000  -0.000000   0.000000 )  
               a(2) = (   0.496103   0.859275   0.000000 )  
               a(3) = (   0.000635   0.000373   7.785034 )  

     reciprocal axes: (cart. coord. in units 2 pi/alat)
               b(1) = (  1.000000 -0.577350 -0.000054 )  
               b(2) = (  0.000000  1.163771 -0.000056 )  
               b(3) = ( -0.000000  0.000000  0.128452 )  


     PseudoPot. # 1 for C  read from file:
     .\C.pbesol-n-kjpaw_psl.1.0.0.UPF
     MD5 check sum: f9b2fe17d1f478429498b05d17159f9e
     Pseudo is Projector augmented-wave + core cor, Zval =  4.0
     Generated using "atomic" code by A. Dal Corso v.6.3
     Shape of augmentation charge: PSQ
     Using radial grid of 1073 points,  4 beta functions with: 
                l(1) =   0
                l(2) =   0
                l(3) =   1
                l(4) =   1
     Q(r) pseudized with 0 coefficients 


     PseudoPot. # 2 for F  read from file:
     .\F.pbesol-n-kjpaw_psl.1.0.0.UPF
     MD5 check sum: d939582bcd23f1ece12cfc4fab8d9d36
     Pseudo is Projector augmented-wave + core cor, Zval =  7.0
     Generated using "atomic" code by A. Dal Corso v.6.3
     Shape of augmentation charge: PSQ
     Using radial grid of 1105 points,  4 beta functions with: 
                l(1) =   0
                l(2) =   0
                l(3) =   1
                l(4) =   1
     Q(r) pseudized with 0 coefficients 


     atomic species   valence    mass     pseudopotential
        C              4.00    12.01070     C ( 1.00)
        F              7.00    18.99840     F ( 1.00)

     No symmetry found


                                    s                        frac. trans.

      isym =  1     identity                                     

 cryst.   s( 1) = (     1          0          0      )
                  (     0          1          0      )
                  (     0          0          1      )

 cart.    s( 1) = (  1.0000000  0.0000000  0.0000000 )
                  (  0.0000000  1.0000000  0.0000000 )
                  (  0.0000000  0.0000000  1.0000000 )


   Cartesian axes

     site n.     atom                  positions (alat units)
         1           C   tau(   1) = (   0.0003493   0.0002054   3.9192074  )
         2           C   tau(   2) = (   0.4990509   0.2866308   4.1152279  )
         3           C   tau(   3) = (   0.9977479   0.5730525   4.9168237  )
         4           C   tau(   4) = (   0.4990468   0.2866273   4.7207990  )
         5           F   tau(   5) = (   0.0003429   0.0002004   3.3821226  )
         6           F   tau(   6) = (   0.9977504   0.5730553   5.4539118  )

   Crystallographic axes

     site n.     atom                  positions (cryst. coord.)
         1           C   tau(   1) = (  0.0000192  0.0000206  0.5034284  )
         2           C   tau(   2) = (  0.3333424  0.3333434  0.5286075  )
         3           C   tau(   3) = (  0.6666304  0.6666281  0.6315738  )
         4           C   tau(   4) = (  0.3333076  0.3333056  0.6063941  )
         5           F   tau(   5) = (  0.0000446  0.0000447  0.4344390  )
         6           F   tau(   6) = (  0.6666024  0.6666014  0.7005636  )

     number of k points=    74  Marzari-Vanderbilt smearing, width (Ry)=  0.0200
                       cart. coord. in units 2pi/alat
        k(    1) = (   0.0000000   0.0000000   0.0000000), wk =   0.0138889
        k(    2) = (   0.0000000   0.0969809  -0.0000046), wk =   0.0277778
        k(    3) = (   0.0000000   0.1939618  -0.0000093), wk =   0.0277778
        k(    4) = (   0.0000001   0.2909427  -0.0000139), wk =   0.0277778
        k(    5) = (   0.0000001   0.3879237  -0.0000186), wk =   0.0277778
        k(    6) = (   0.0000001   0.4849046  -0.0000232), wk =   0.0277778
        k(    7) = (  -0.0000001  -0.5818855   0.0000279), wk =   0.0138889
        k(    8) = (   0.0833333  -0.0481125  -0.0000045), wk =   0.0277778
        k(    9) = (   0.0833333   0.0488684  -0.0000091), wk =   0.0277778
        k(   10) = (   0.0833334   0.1458493  -0.0000138), wk =   0.0277778
        k(   11) = (   0.0833334   0.2428302  -0.0000184), wk =   0.0277778
        k(   12) = (   0.0833334   0.3398112  -0.0000231), wk =   0.0277778
        k(   13) = (   0.0833334   0.4367921  -0.0000277), wk =   0.0277778
        k(   14) = (   0.0833332  -0.6299980   0.0000234), wk =   0.0277778
        k(   15) = (   0.0833332  -0.5330171   0.0000187), wk =   0.0277778
        k(   16) = (   0.0833332  -0.4360362   0.0000141), wk =   0.0277778
        k(   17) = (   0.0833333  -0.3390552   0.0000094), wk =   0.0277778
        k(   18) = (   0.0833333  -0.2420743   0.0000048), wk =   0.0277778
        k(   19) = (   0.0833333  -0.1450934   0.0000001), wk =   0.0277778
        k(   20) = (   0.1666666  -0.0962250  -0.0000090), wk =   0.0277778
        k(   21) = (   0.1666667   0.0007559  -0.0000136), wk =   0.0277778
        k(   22) = (   0.1666667   0.0977368  -0.0000183), wk =   0.0277778
        k(   23) = (   0.1666667   0.1947177  -0.0000229), wk =   0.0277778
        k(   24) = (   0.1666667   0.2916986  -0.0000276), wk =   0.0277778
        k(   25) = (   0.1666667   0.3886796  -0.0000322), wk =   0.0277778
        k(   26) = (   0.1666665  -0.6781105   0.0000189), wk =   0.0277778
        k(   27) = (   0.1666665  -0.5811296   0.0000142), wk =   0.0277778
        k(   28) = (   0.1666666  -0.4841487   0.0000096), wk =   0.0277778
        k(   29) = (   0.1666666  -0.3871678   0.0000049), wk =   0.0277778
        k(   30) = (   0.1666666  -0.2901868   0.0000003), wk =   0.0277778
        k(   31) = (   0.1666666  -0.1932059  -0.0000044), wk =   0.0277778
        k(   32) = (   0.2500000  -0.1443375  -0.0000135), wk =   0.0277778
        k(   33) = (   0.2500000  -0.0473566  -0.0000181), wk =   0.0277778
        k(   34) = (   0.2500000   0.0496243  -0.0000228), wk =   0.0277778
        k(   35) = (   0.2500000   0.1466052  -0.0000274), wk =   0.0277778
        k(   36) = (   0.2500000   0.2435861  -0.0000321), wk =   0.0277778
        k(   37) = (   0.2500001   0.3405671  -0.0000367), wk =   0.0277778
        k(   38) = (   0.2499999  -0.7262230   0.0000144), wk =   0.0277778
        k(   39) = (   0.2499999  -0.6292421   0.0000097), wk =   0.0277778
        k(   40) = (   0.2499999  -0.5322612   0.0000051), wk =   0.0277778
        k(   41) = (   0.2499999  -0.4352803   0.0000004), wk =   0.0277778
        k(   42) = (   0.2499999  -0.3382993  -0.0000042), wk =   0.0277778
        k(   43) = (   0.2500000  -0.2413184  -0.0000088), wk =   0.0277778
        k(   44) = (   0.3333333  -0.1924500  -0.0000180), wk =   0.0277778
        k(   45) = (   0.3333333  -0.0954691  -0.0000226), wk =   0.0277778
        k(   46) = (   0.3333333   0.0015118  -0.0000273), wk =   0.0277778
        k(   47) = (   0.3333334   0.0984927  -0.0000319), wk =   0.0277778
        k(   48) = (   0.3333334   0.1954736  -0.0000366), wk =   0.0277778
        k(   49) = (   0.3333334   0.2924545  -0.0000412), wk =   0.0277778
        k(   50) = (   0.3333332  -0.7743355   0.0000099), wk =   0.0277778
        k(   51) = (   0.3333332  -0.6773546   0.0000052), wk =   0.0277778
        k(   52) = (   0.3333332  -0.5803737   0.0000006), wk =   0.0277778
        k(   53) = (   0.3333332  -0.4833928  -0.0000041), wk =   0.0277778
        k(   54) = (   0.3333333  -0.3864119  -0.0000087), wk =   0.0277778
        k(   55) = (   0.3333333  -0.2894309  -0.0000133), wk =   0.0277778
        k(   56) = (   0.4166666  -0.2405625  -0.0000225), wk =   0.0277778
        k(   57) = (   0.4166666  -0.1435816  -0.0000271), wk =   0.0277778
        k(   58) = (   0.4166667  -0.0466007  -0.0000318), wk =   0.0277778
        k(   59) = (   0.4166667   0.0503802  -0.0000364), wk =   0.0277778
        k(   60) = (   0.4166667   0.1473611  -0.0000411), wk =   0.0277778
        k(   61) = (   0.4166667   0.2443420  -0.0000457), wk =   0.0277778
        k(   62) = (   0.4166665  -0.8224480   0.0000054), wk =   0.0277778
        k(   63) = (   0.4166665  -0.7254671   0.0000007), wk =   0.0277778
        k(   64) = (   0.4166665  -0.6284862  -0.0000039), wk =   0.0277778
        k(   65) = (   0.4166666  -0.5315053  -0.0000086), wk =   0.0277778
        k(   66) = (   0.4166666  -0.4345244  -0.0000132), wk =   0.0277778
        k(   67) = (   0.4166666  -0.3375434  -0.0000178), wk =   0.0277778
        k(   68) = (  -0.4999999   0.2886750   0.0000270), wk =   0.0138889
        k(   69) = (  -0.4999999   0.3856560   0.0000223), wk =   0.0277778
        k(   70) = (  -0.4999999   0.4826369   0.0000177), wk =   0.0277778
        k(   71) = (  -0.4999999   0.5796178   0.0000131), wk =   0.0277778
        k(   72) = (  -0.4999999   0.6765987   0.0000084), wk =   0.0277778
        k(   73) = (  -0.4999998   0.7735796   0.0000038), wk =   0.0277778
        k(   74) = (  -0.5000001  -0.2932104   0.0000549), wk =   0.0138889

                       cryst. coord.
        k(    1) = (   0.0000000   0.0000000   0.0000000), wk =   0.0138889
        k(    2) = (   0.0000000   0.0833333   0.0000000), wk =   0.0277778
        k(    3) = (   0.0000000   0.1666667   0.0000000), wk =   0.0277778
        k(    4) = (   0.0000000   0.2500000   0.0000000), wk =   0.0277778
        k(    5) = (   0.0000000   0.3333333   0.0000000), wk =   0.0277778
        k(    6) = (   0.0000000   0.4166667   0.0000000), wk =   0.0277778
        k(    7) = (   0.0000000  -0.5000000  -0.0000000), wk =   0.0138889
        k(    8) = (   0.0833333   0.0000000   0.0000000), wk =   0.0277778
        k(    9) = (   0.0833333   0.0833333   0.0000000), wk =   0.0277778
        k(   10) = (   0.0833333   0.1666667   0.0000000), wk =   0.0277778
        k(   11) = (   0.0833333   0.2500000   0.0000000), wk =   0.0277778
        k(   12) = (   0.0833333   0.3333333   0.0000000), wk =   0.0277778
        k(   13) = (   0.0833333   0.4166667   0.0000000), wk =   0.0277778
        k(   14) = (   0.0833333  -0.5000000  -0.0000000), wk =   0.0277778
        k(   15) = (   0.0833333  -0.4166667  -0.0000000), wk =   0.0277778
        k(   16) = (   0.0833333  -0.3333333   0.0000000), wk =   0.0277778
        k(   17) = (   0.0833333  -0.2500000   0.0000000), wk =   0.0277778
        k(   18) = (   0.0833333  -0.1666667   0.0000000), wk =   0.0277778
        k(   19) = (   0.0833333  -0.0833333   0.0000000), wk =   0.0277778
        k(   20) = (   0.1666667   0.0000000   0.0000000), wk =   0.0277778
        k(   21) = (   0.1666667   0.0833333   0.0000000), wk =   0.0277778
        k(   22) = (   0.1666667   0.1666667   0.0000000), wk =   0.0277778
        k(   23) = (   0.1666667   0.2500000   0.0000000), wk =   0.0277778
        k(   24) = (   0.1666667   0.3333333   0.0000000), wk =   0.0277778
        k(   25) = (   0.1666667   0.4166667   0.0000000), wk =   0.0277778
        k(   26) = (   0.1666667  -0.5000000   0.0000000), wk =   0.0277778
        k(   27) = (   0.1666667  -0.4166667   0.0000000), wk =   0.0277778
        k(   28) = (   0.1666667  -0.3333333   0.0000000), wk =   0.0277778
        k(   29) = (   0.1666667  -0.2500000   0.0000000), wk =   0.0277778
        k(   30) = (   0.1666667  -0.1666667   0.0000000), wk =   0.0277778
        k(   31) = (   0.1666667  -0.0833333   0.0000000), wk =   0.0277778
        k(   32) = (   0.2500000   0.0000000   0.0000000), wk =   0.0277778
        k(   33) = (   0.2500000   0.0833333   0.0000000), wk =   0.0277778
        k(   34) = (   0.2500000   0.1666667   0.0000000), wk =   0.0277778
        k(   35) = (   0.2500000   0.2500000   0.0000000), wk =   0.0277778
        k(   36) = (   0.2500000   0.3333333   0.0000000), wk =   0.0277778
        k(   37) = (   0.2500000   0.4166667   0.0000000), wk =   0.0277778
        k(   38) = (   0.2500000  -0.5000000   0.0000000), wk =   0.0277778
        k(   39) = (   0.2500000  -0.4166667   0.0000000), wk =   0.0277778
        k(   40) = (   0.2500000  -0.3333333   0.0000000), wk =   0.0277778
        k(   41) = (   0.2500000  -0.2500000   0.0000000), wk =   0.0277778
        k(   42) = (   0.2500000  -0.1666667   0.0000000), wk =   0.0277778
        k(   43) = (   0.2500000  -0.0833333   0.0000000), wk =   0.0277778
        k(   44) = (   0.3333333   0.0000000   0.0000000), wk =   0.0277778
        k(   45) = (   0.3333333   0.0833333   0.0000000), wk =   0.0277778
        k(   46) = (   0.3333333   0.1666667   0.0000000), wk =   0.0277778
        k(   47) = (   0.3333333   0.2500000   0.0000000), wk =   0.0277778
        k(   48) = (   0.3333333   0.3333333   0.0000000), wk =   0.0277778
        k(   49) = (   0.3333333   0.4166667   0.0000000), wk =   0.0277778
        k(   50) = (   0.3333333  -0.5000000   0.0000000), wk =   0.0277778
        k(   51) = (   0.3333333  -0.4166667   0.0000000), wk =   0.0277778
        k(   52) = (   0.3333333  -0.3333333   0.0000000), wk =   0.0277778
        k(   53) = (   0.3333333  -0.2500000   0.0000000), wk =   0.0277778
        k(   54) = (   0.3333333  -0.1666667   0.0000000), wk =   0.0277778
        k(   55) = (   0.3333333  -0.0833333   0.0000000), wk =   0.0277778
        k(   56) = (   0.4166667  -0.0000000  -0.0000000), wk =   0.0277778
        k(   57) = (   0.4166667   0.0833333   0.0000000), wk =   0.0277778
        k(   58) = (   0.4166667   0.1666667   0.0000000), wk =   0.0277778
        k(   59) = (   0.4166667   0.2500000   0.0000000), wk =   0.0277778
        k(   60) = (   0.4166667   0.3333333   0.0000000), wk =   0.0277778
        k(   61) = (   0.4166667   0.4166667   0.0000000), wk =   0.0277778
        k(   62) = (   0.4166667  -0.5000000   0.0000000), wk =   0.0277778
        k(   63) = (   0.4166667  -0.4166667   0.0000000), wk =   0.0277778
        k(   64) = (   0.4166667  -0.3333333  -0.0000000), wk =   0.0277778
        k(   65) = (   0.4166667  -0.2500000   0.0000000), wk =   0.0277778
        k(   66) = (   0.4166667  -0.1666667   0.0000000), wk =   0.0277778
        k(   67) = (   0.4166667  -0.0833333  -0.0000000), wk =   0.0277778
        k(   68) = (  -0.5000000   0.0000000  -0.0000000), wk =   0.0138889
        k(   69) = (  -0.5000000   0.0833333  -0.0000000), wk =   0.0277778
        k(   70) = (  -0.5000000   0.1666667  -0.0000000), wk =   0.0277778
        k(   71) = (  -0.5000000   0.2500000  -0.0000000), wk =   0.0277778
        k(   72) = (  -0.5000000   0.3333333  -0.0000000), wk =   0.0277778
        k(   73) = (  -0.5000000   0.4166667   0.0000000), wk =   0.0277778
        k(   74) = (  -0.5000000  -0.5000000   0.0000000), wk =   0.0138889

     Dense  grid:    88185 G-vectors     FFT dimensions: (  30,  30, 240)

     Smooth grid:    31147 G-vectors     FFT dimensions: (  24,  24, 162)

     Dynamical RAM for                 wfc:       1.13 MB

     Dynamical RAM for     wfc (w. buffer):      84.54 MB

     Dynamical RAM for           str. fact:       2.69 MB

     Dynamical RAM for           local pot:       0.00 MB

     Dynamical RAM for          nlocal pot:       2.85 MB

     Dynamical RAM for                qrad:       0.67 MB

     Dynamical RAM for          rho,v,vnew:       8.98 MB

     Dynamical RAM for               rhoin:       2.99 MB

     Dynamical RAM for            rho*nmix:      21.53 MB

     Dynamical RAM for           G-vectors:       5.28 MB

     Dynamical RAM for          h,s,v(r/c):       0.26 MB

     Dynamical RAM for          <psi|beta>:       0.01 MB

     Dynamical RAM for                 psi:       4.51 MB

     Dynamical RAM for                hpsi:       4.51 MB

     Dynamical RAM for                spsi:       4.51 MB

     Dynamical RAM for      wfcinit/wfcrot:       2.86 MB

     Dynamical RAM for           addusdens:      63.24 MB

     Dynamical RAM for          addusforce:      80.07 MB

     Dynamical RAM for         addusstress:      67.28 MB

     Estimated static dynamical RAM per process >     141.81 MB

     Estimated max dynamical RAM per process >     221.88 MB

     Check: negative core charge=   -0.000005

     Initial potential from superposition of free atoms

     starting charge   29.99983, renormalised to   30.00000

     negative rho (up, down):  4.883E-04 0.000E+00
     Starting wfcs are   24 randomized atomic wfcs
     Checking if some PAW data can be deallocated... 

     total cpu time spent up to now is        9.8 secs

     Self-consistent Calculation

     iteration #  1     ecut=    45.00 Ry     beta= 0.70
     Davidson diagonalization with overlap
     ethr =  1.00E-02,  avg # of iterations =  2.7

     negative rho (up, down):  5.739E-04 0.000E+00

     total cpu time spent up to now is       18.1 secs

     total energy              =    -189.88042391 Ry
     Harris-Foulkes estimate   =    -190.05941144 Ry
     estimated scf accuracy    <       0.32759415 Ry

     iteration #  2     ecut=    45.00 Ry     beta= 0.70
     Davidson diagonalization with overlap
     ethr =  1.09E-03,  avg # of iterations =  2.4

     negative rho (up, down):  6.046E-04 0.000E+00

     total cpu time spent up to now is       25.5 secs

     total energy              =    -189.90955870 Ry
     Harris-Foulkes estimate   =    -189.96724418 Ry
     estimated scf accuracy    <       0.09315967 Ry

     iteration #  3     ecut=    45.00 Ry     beta= 0.70
     Davidson diagonalization with overlap
     ethr =  3.11E-04,  avg # of iterations =  4.9

     negative rho (up, down):  6.109E-04 0.000E+00

     total cpu time spent up to now is       34.0 secs

     total energy              =    -189.93087507 Ry
     Harris-Foulkes estimate   =    -189.95038060 Ry
     estimated scf accuracy    <       0.03787464 Ry

     iteration #  4     ecut=    45.00 Ry     beta= 0.70
     Davidson diagonalization with overlap
     ethr =  1.26E-04,  avg # of iterations =  4.4

     negative rho (up, down):  6.122E-04 0.000E+00

     total cpu time spent up to now is       41.6 secs

     total energy              =    -189.93907574 Ry
     Harris-Foulkes estimate   =    -189.94353033 Ry
     estimated scf accuracy    <       0.01029261 Ry

     iteration #  5     ecut=    45.00 Ry     beta= 0.70
     Davidson diagonalization with overlap
     ethr =  3.43E-05,  avg # of iterations =  3.2

     negative rho (up, down):  6.157E-04 0.000E+00

     total cpu time spent up to now is       48.5 secs

     total energy              =    -189.94104390 Ry
     Harris-Foulkes estimate   =    -189.94106394 Ry
     estimated scf accuracy    <       0.00006084 Ry

     iteration #  6     ecut=    45.00 Ry     beta= 0.70
     Davidson diagonalization with overlap
     ethr =  2.03E-07,  avg # of iterations =  4.8

     negative rho (up, down):  6.170E-04 0.000E+00

     total cpu time spent up to now is       58.3 secs

     total energy              =    -189.94109759 Ry
     Harris-Foulkes estimate   =    -189.94110817 Ry
     estimated scf accuracy    <       0.00002571 Ry

     iteration #  7     ecut=    45.00 Ry     beta= 0.70
     Davidson diagonalization with overlap
     ethr =  8.57E-08,  avg # of iterations =  2.0

     negative rho (up, down):  6.174E-04 0.000E+00

     total cpu time spent up to now is       64.2 secs

     total energy              =    -189.94109874 Ry
     Harris-Foulkes estimate   =    -189.94110009 Ry
     estimated scf accuracy    <       0.00000290 Ry

     iteration #  8     ecut=    45.00 Ry     beta= 0.70
     Davidson diagonalization with overlap
     ethr =  9.67E-09,  avg # of iterations =  3.0

     negative rho (up, down):  6.175E-04 0.000E+00

     total cpu time spent up to now is       72.0 secs

     End of self-consistent calculation

          k = 0.0000 0.0000 0.0000 (  3867 PWs)   bands (ev):

   -27.2735 -27.2236 -21.5195 -18.0972 -12.1292  -9.3808  -6.2029  -5.7565
    -5.7121  -5.4901  -5.4480  -3.2290  -3.1842  -1.9792  -1.9429   1.9806
     4.4523   4.6652   4.8053

     occupation numbers 
     1.0000   1.0000   1.0000   1.0000   1.0000   1.0000   1.0000   1.0000
     1.0000   1.0000   1.0000   1.0000   1.0000   1.0000   1.0000   0.0000
     0.0000   0.0000   0.0000

          k = 0.0000 0.0970-0.0000 (  3853 PWs)   bands (ev):

   -27.2087 -27.1619 -21.3712 -17.9709 -12.0331  -9.3529  -6.5622  -6.0387
    -5.9547  -5.7153  -5.5959  -3.6287  -3.4066  -2.4757  -2.1647   2.3180
     4.3396   5.0549   5.2301

     occupation numbers 
     1.0000   1.0000   1.0000   1.0000   1.0000   1.0000   1.0000   1.0000
     1.0000   1.0000   1.0000   1.0000   1.0000   1.0000   1.0000   0.0000
     0.0000   0.0000   0.0000

          k = 0.0000 0.1940-0.0000 (  3862 PWs)   bands (ev):

   -27.0279 -26.9896 -20.9273 -17.5939 -11.7636  -9.3115  -7.7364  -7.1503
    -6.4794  -6.1537  -5.9069  -4.3292  -3.7634  -3.6029  -2.6066   2.8209
     4.1205   5.7848   6.0627

     occupation numbers 
     1.0000   1.0000   1.0000   1.0000   1.0000   1.0000   1.0000   1.0000
     1.0000   1.0000   1.0000   1.0000   1.0000   1.0000   1.0000   0.0000
     0.0000   0.0000   0.0000

          k = 0.0000 0.2909-0.0000 (  3885 PWs)   bands (ev):

   -26.7712 -26.7443 -20.1907 -16.9721 -11.4227  -9.8311  -9.1665  -8.3844
    -7.1332  -6.7880  -6.3376  -4.9875  -4.5875  -4.0907  -3.0705   2.8560
     4.2192   5.8227   6.9607

     occupation numbers 
     1.0000   1.0000   1.0000   1.0000   1.0000   1.0000   1.0000   1.0000
     1.0000   1.0000   1.0000   1.0000   1.0000   1.0000   1.0000   0.0000
     0.0000   0.0000   0.0000

          k = 0.0000 0.3879-0.0000 (  3910 PWs)   bands (ev):

   -26.5021 -26.4863 -19.1718 -16.1201 -12.1470 -10.8095 -10.1758  -8.8409
    -7.7170  -7.3821  -6.7596  -5.9145  -4.9471  -4.3379  -3.4289   2.6727
     4.4162   5.5395   7.2252

     occupation numbers 
     1.0000   1.0000   1.0000   1.0000   1.0000   1.0000   1.0000   1.0000
     1.0000   1.0000   1.0000   1.0000   1.0000   1.0000   1.0000   0.0000
     0.0000   0.0000   0.0000

          k = 0.0000 0.4849-0.0000 (  3914 PWs)   bands (ev):

   -26.2960 -26.2888 -17.9172 -15.1272 -13.9427 -12.0764 -10.0401  -9.0527
    -8.1064  -7.7107  -7.0586  -6.5671  -5.1598  -4.4931  -3.6479   2.6396
     4.2774   5.0522   7.4796

     occupation numbers 
     1.0000   1.0000   1.0000   1.0000   1.0000   1.0000   1.0000   1.0000
     1.0000   1.0000   1.0000   1.0000   1.0000   1.0000   1.0000   0.0000
     0.0000   0.0000   0.0000

          k =-0.0000-0.5819 0.0000 (  3910 PWs)   bands (ev):

   -26.2180 -26.2151 -16.9311 -15.3951 -13.9319 -13.2056  -9.7823  -9.2401
    -8.2419  -7.7903  -7.1655  -6.7981  -5.2431  -4.5463  -3.7213   2.7006
     3.9951   4.9681   7.9104

     occupation numbers 
     1.0000   1.0000   1.0000   1.0000   1.0000   1.0000   1.0000   1.0000
     1.0000   1.0000   1.0000   1.0000   1.0000   1.0000   1.0000   0.0000
     0.0000   0.0000   0.0000

          k = 0.0833-0.0481-0.0000 (  3861 PWs)   bands (ev):

   -27.2103 -27.1635 -21.3738 -17.9732 -12.0354  -9.3541  -6.5827  -6.0675
    -5.9043  -5.7621  -5.5531  -3.6712  -3.3600  -2.5120  -2.1239   2.3313
     4.3532   5.1467   5.1996

     occupation numbers 
     1.0000   1.0000   1.0000   1.0000   1.0000   1.0000   1.0000   1.0000
     1.0000   1.0000   1.0000   1.0000   1.0000   1.0000   1.0000   0.0000
     0.0000   0.0000   0.0000

          k = 0.0833 0.0489-0.0000 (  3853 PWs)   bands (ev):

   -27.2095 -27.1627 -21.3725 -17.9721 -12.0342  -9.3535  -6.5716  -6.0534
    -5.9310  -5.7372  -5.5747  -3.6495  -3.3840  -2.4929  -2.1453   2.3242
     4.3464   5.0833   5.2301

     occupation numbers 
     1.0000   1.0000   1.0000   1.0000   1.0000   1.0000   1.0000   1.0000
     1.0000   1.0000   1.0000   1.0000   1.0000   1.0000   1.0000   0.0000
     0.0000   0.0000   0.0000

          k = 0.0833 0.1458-0.0000 (  3842 PWs)   bands (ev):

   -27.0859 -27.0450 -21.0751 -17.7192 -11.8499  -9.3150  -7.2875  -6.7212
    -6.4789  -6.1241  -5.6918  -4.0625  -3.8690  -3.0853  -2.6001   2.7981
     4.3217   5.4245   5.8253

     occupation numbers 
     1.0000   1.0000   1.0000   1.0000   1.0000   1.0000   1.0000   1.0000
     1.0000   1.0000   1.0000   1.0000   1.0000   1.0000   1.0000   0.0000
     0.0000   0.0000   0.0000

          k = 0.0833 0.2428-0.0000 (  3867 PWs)   bands (ev):

   -26.8663 -26.8353 -20.4834 -17.2184 -11.5299  -9.3798  -8.6561  -7.8674
    -7.2462  -6.7202  -6.0387  -4.7142  -4.3808  -3.8313  -3.1665   3.3038
     4.3200   6.0487   6.4409

     occupation numbers 
     1.0000   1.0000   1.0000   1.0000   1.0000   1.0000   1.0000   1.0000
     1.0000   1.0000   1.0000   1.0000   1.0000   1.0000   1.0000   0.0000
     0.0000   0.0000   0.0000

          k = 0.0833 0.3398-0.0000 (  3902 PWs)   bands (ev):

   -26.6025 -26.5825 -19.6030 -16.4784 -11.4440 -10.4786  -9.7064  -8.6920
    -7.9411  -7.3289  -6.5983  -5.5362  -4.8001  -4.2977  -3.5679   3.3248
     4.5917   6.1139   7.1153

     occupation numbers 
     1.0000   1.0000   1.0000   1.0000   1.0000   1.0000   1.0000   1.0000
     1.0000   1.0000   1.0000   1.0000   1.0000   1.0000   1.0000   0.0000
     0.0000   0.0000   0.0000

          k = 0.0833 0.4368-0.0000 (  3910 PWs)   bands (ev):

   -26.3640 -26.3535 -18.4554 -15.5279 -13.0129 -11.3402 -10.1509  -8.9884
    -8.4094  -7.7096  -7.1529  -6.2425  -5.1516  -4.4880  -3.8381   3.2708
     4.7077   5.6891   7.4444

     occupation numbers 
     1.0000   1.0000   1.0000   1.0000   1.0000   1.0000   1.0000   1.0000
     1.0000   1.0000   1.0000   1.0000   1.0000   1.0000   1.0000   0.0000
     0.0000   0.0000   0.0000

          k = 0.0833-0.6300 0.0000 (  3915 PWs)   bands (ev):

   -26.2215 -26.2175 -17.1748 -14.9868 -14.1339 -12.7284  -9.8308  -9.2205
    -8.6765  -7.8088  -7.5044  -6.6418  -5.3434  -4.5757  -3.9804   3.4151
     4.2685   5.5507   7.7352

     occupation numbers 
     1.0000   1.0000   1.0000   1.0000   1.0000   1.0000   1.0000   1.0000
     1.0000   1.0000   1.0000   1.0000   1.0000   1.0000   1.0000   0.0000
     0.0000   0.0000   0.0000

          k = 0.0833-0.5330 0.0000 (  3910 PWs)   bands (ev):

   -26.2225 -26.2185 -17.1850 -14.9792 -14.1399 -12.7140  -9.8362  -9.2120
    -8.6872  -7.7950  -7.5214  -6.6386  -5.3434  -4.5760  -3.9838   3.4194
     4.2735   5.5551   7.7346

     occupation numbers 
     1.0000   1.0000   1.0000   1.0000   1.0000   1.0000   1.0000   1.0000
     1.0000   1.0000   1.0000   1.0000   1.0000   1.0000   1.0000   0.0000
     0.0000   0.0000   0.0000

          k = 0.0833-0.4360 0.0000 (  3909 PWs)   bands (ev):

   -26.3667 -26.3562 -18.4665 -15.5376 -12.9952 -11.3239 -10.1531  -8.9820
    -8.4322  -7.6908  -7.1807  -6.2336  -5.1504  -4.4901  -3.8471   3.2843
     4.7195   5.7002   7.4517

     occupation numbers 
     1.0000   1.0000   1.0000   1.0000   1.0000   1.0000   1.0000   1.0000
     1.0000   1.0000   1.0000   1.0000   1.0000   1.0000   1.0000   0.0000
     0.0000   0.0000   0.0000

          k = 0.0833-0.3391 0.0000 (  3908 PWs)   bands (ev):

   -26.6060 -26.5860 -19.6118 -16.4864 -11.4395 -10.4674  -9.6901  -8.6890
    -7.9625  -7.3209  -6.6245  -5.5255  -4.7929  -4.3037  -3.5806   3.3449
     4.6089   6.1236   7.1403

     occupation numbers 
     1.0000   1.0000   1.0000   1.0000   1.0000   1.0000   1.0000   1.0000
     1.0000   1.0000   1.0000   1.0000   1.0000   1.0000   1.0000   0.0000
     0.0000   0.0000   0.0000

          k = 0.0833-0.2421 0.0000 (  3881 PWs)   bands (ev):

   -26.8696 -26.8385 -20.4898 -17.2242 -11.5347  -9.3780  -8.6380  -7.8643
    -7.2555  -6.7195  -6.0588  -4.7070  -4.3764  -3.8280  -3.1808   3.3232
     4.3489   6.0434   6.4880

     occupation numbers 
     1.0000   1.0000   1.0000   1.0000   1.0000   1.0000   1.0000   1.0000
     1.0000   1.0000   1.0000   1.0000   1.0000   1.0000   1.0000   0.0000
     0.0000   0.0000   0.0000

          k = 0.0833-0.1451 0.0000 (  3849 PWs)   bands (ev):

   -27.0882 -27.0472 -21.0790 -17.7227 -11.8532  -9.3163  -7.2924  -6.7318
    -6.4683  -6.1159  -5.7000  -4.0667  -3.8652  -3.0828  -2.5979   2.8163
     4.3515   5.4478   5.8185

     occupation numbers 
     1.0000   1.0000   1.0000   1.0000   1.0000   1.0000   1.0000   1.0000
     1.0000   1.0000   1.0000   1.0000   1.0000   1.0000   1.0000   0.0000
     0.0000   0.0000   0.0000

          k = 0.1667-0.0962-0.0000 (  3851 PWs)   bands (ev):

   -27.0340 -26.9957 -20.9375 -17.6033 -11.7728  -9.3161  -7.8119  -7.1803
    -6.3999  -6.1866  -5.8456  -4.3648  -3.7053  -3.6362  -2.5468   2.8690
     4.1562   5.9118   6.1406

     occupation numbers 
     1.0000   1.0000   1.0000   1.0000   1.0000   1.0000   1.0000   1.0000
     1.0000   1.0000   1.0000   1.0000   1.0000   1.0000   1.0000   0.0000
     0.0000   0.0000   0.0000

          k = 0.1667 0.0008-0.0000 (  3852 PWs)   bands (ev):

   -27.0904 -27.0494 -21.0828 -17.7262 -11.8564  -9.3176  -7.2930  -6.7396
    -6.4610  -6.1075  -5.7113  -4.0649  -3.8672  -3.0777  -2.5995   2.8328
     4.3773   5.4758   5.8111

     occupation numbers 
     1.0000   1.0000   1.0000   1.0000   1.0000   1.0000   1.0000   1.0000
     1.0000   1.0000   1.0000   1.0000   1.0000   1.0000   1.0000   0.0000
     0.0000   0.0000   0.0000

          k = 0.1667 0.0977-0.0000 (  3862 PWs)   bands (ev):

   -27.0309 -26.9926 -20.9324 -17.5985 -11.7681  -9.3137  -7.7729  -7.1651
    -6.4405  -6.1701  -5.8767  -4.3465  -3.7354  -3.6188  -2.5777   2.8448
     4.1382   5.8380   6.0258

     occupation numbers 
     1.0000   1.0000   1.0000   1.0000   1.0000   1.0000   1.0000   1.0000
     1.0000   1.0000   1.0000   1.0000   1.0000   1.0000   1.0000   0.0000
     0.0000   0.0000   0.0000

          k = 0.1667 0.1947-0.0000 (  3862 PWs)   bands (ev):

   -26.8686 -26.8375 -20.4872 -17.2220 -11.5338  -9.3847  -8.6930  -7.8787
    -7.2129  -6.7108  -6.0221  -4.7284  -4.3741  -3.8314  -3.1365   3.3302
     4.3165   6.0899   6.4793

     occupation numbers 
     1.0000   1.0000   1.0000   1.0000   1.0000   1.0000   1.0000   1.0000
     1.0000   1.0000   1.0000   1.0000   1.0000   1.0000   1.0000   0.0000
     0.0000   0.0000   0.0000

          k = 0.1667 0.2917-0.0000 (  3874 PWs)   bands (ev):

   -26.6411 -26.6195 -19.7509 -16.6019 -11.3110  -9.8373  -9.7510  -8.4801
    -8.2139  -7.6447  -6.4112  -5.4745  -4.6241  -4.1655  -3.9270   4.2381
     4.5132   6.5083   7.4982

     occupation numbers 
     1.0000   1.0000   1.0000   1.0000   1.0000   1.0000   1.0000   1.0000
     1.0000   1.0000   1.0000   1.0000   1.0000   1.0000   1.0000   0.0000
     0.0000   0.0000   0.0000

          k = 0.1667 0.3887-0.0000 (  3892 PWs)   bands (ev):

   -26.4060 -26.3935 -18.7356 -15.7526 -12.0451 -10.8934 -10.0856  -9.1538
    -8.8198  -8.2417  -7.0300  -6.0536  -5.0360  -4.5426  -4.2789   4.3645
     5.1212   7.0065   7.2545

     occupation numbers 
     1.0000   1.0000   1.0000   1.0000   1.0000   1.0000   1.0000   1.0000
     1.0000   1.0000   1.0000   1.0000   1.0000   1.0000   1.0000   0.0000
     0.0000   0.0000   0.0000

          k = 0.1667-0.6781 0.0000 (  3902 PWs)   bands (ev):

   -26.2289 -26.2232 -17.4939 -14.7609 -13.6527 -12.0157  -9.9979  -9.6830
    -9.1240  -8.3057  -7.6323  -6.3909  -5.4870  -4.6490  -4.4832   4.3524
     5.3595   6.8736   7.2187

     occupation numbers 
     1.0000   1.0000   1.0000   1.0000   1.0000   1.0000   1.0000   1.0000
     1.0000   1.0000   1.0000   1.0000   1.0000   1.0000   1.0000   0.0000
     0.0000   0.0000   0.0000

          k = 0.1667-0.5811 0.0000 (  3908 PWs)   bands (ev):

   -26.1637 -26.1615 -16.5460 -15.0016 -13.5559 -13.0628 -10.2192  -9.4830
    -9.2518  -8.3129  -7.9053  -6.4990  -5.6547  -4.6273  -4.6120   4.4134
     5.2046   6.9554   7.2273

     occupation numbers 
     1.0000   1.0000   1.0000   1.0000   1.0000   1.0000   1.0000   1.0000
     1.0000   1.0000   1.0000   1.0000   1.0000   1.0000   1.0000   0.0000
     0.0000   0.0000   0.0000

          k = 0.1667-0.4841 0.0000 (  3901 PWs)   bands (ev):

   -26.2327 -26.2270 -17.5175 -14.7791 -13.6249 -11.9822 -10.0148  -9.6862
    -9.1280  -8.2966  -7.6523  -6.3767  -5.4868  -4.6395  -4.5010   4.3576
     5.3691   6.8987   7.2066

     occupation numbers 
     1.0000   1.0000   1.0000   1.0000   1.0000   1.0000   1.0000   1.0000
     1.0000   1.0000   1.0000   1.0000   1.0000   1.0000   1.0000   0.0000
     0.0000   0.0000   0.0000

          k = 0.1667-0.3872 0.0000 (  3896 PWs)   bands (ev):

   -26.4123 -26.3997 -18.7558 -15.7712 -12.0165 -10.8724 -10.0811  -9.1602
    -8.8419  -8.2340  -7.0517  -6.0364  -5.0249  -4.5414  -4.2967   4.3762
     5.1405   7.0105   7.2851

     occupation numbers 
     1.0000   1.0000   1.0000   1.0000   1.0000   1.0000   1.0000   1.0000
     1.0000   1.0000   1.0000   1.0000   1.0000   1.0000   1.0000   0.0000
     0.0000   0.0000   0.0000

          k = 0.1667-0.2902 0.0000 (  3870 PWs)   bands (ev):

   -26.6480 -26.6263 -19.7662 -16.6160 -11.3190  -9.8317  -9.7299  -8.4936
    -8.2048  -7.6444  -6.4292  -5.4634  -4.6111  -4.1627  -3.9360   4.2596
     4.5485   6.5376   7.5528

     occupation numbers 
     1.0000   1.0000   1.0000   1.0000   1.0000   1.0000   1.0000   1.0000
     1.0000   1.0000   1.0000   1.0000   1.0000   1.0000   1.0000   0.0000
     0.0000   0.0000   0.0000

          k = 0.1667-0.1932-0.0000 (  3863 PWs)   bands (ev):

   -26.8742 -26.8430 -20.4975 -17.2314 -11.5426  -9.3881  -8.7144  -7.8859
    -7.1877  -6.7014  -6.0242  -4.7361  -4.3631  -3.8283  -3.1192   3.3741
     4.3424   6.1279   6.5637

     occupation numbers 
     1.0000   1.0000   1.0000   1.0000   1.0000   1.0000   1.0000   1.0000
     1.0000   1.0000   1.0000   1.0000   1.0000   1.0000   1.0000   0.0000
     0.0000   0.0000   0.0000

          k = 0.2500-0.1443-0.0000 (  3872 PWs)   bands (ev):

   -26.7839 -26.7569 -20.2140 -16.9937 -11.4475  -9.8871  -9.2193  -8.4165
    -7.0221  -6.8046  -6.2518  -5.0288  -4.5943  -4.0244  -2.9960   2.9840
     4.2311   5.9808   6.9695

     occupation numbers 
     1.0000   1.0000   1.0000   1.0000   1.0000   1.0000   1.0000   1.0000
     1.0000   1.0000   1.0000   1.0000   1.0000   1.0000   1.0000   0.0000
     0.0000   0.0000   0.0000

          k = 0.2500-0.0474-0.0000 (  3869 PWs)   bands (ev):

   -26.8774 -26.8462 -20.5038 -17.2370 -11.5472  -9.3859  -8.6957  -7.8809
    -7.1977  -6.7007  -6.0457  -4.7283  -4.3581  -3.8269  -3.1335   3.3912
     4.3692   6.1301   6.5954

     occupation numbers 
     1.0000   1.0000   1.0000   1.0000   1.0000   1.0000   1.0000   1.0000
     1.0000   1.0000   1.0000   1.0000   1.0000   1.0000   1.0000   0.0000
     0.0000   0.0000   0.0000

          k = 0.2500 0.0496-0.0000 (  3881 PWs)   bands (ev):

   -26.8751 -26.8439 -20.4998 -17.2334 -11.5431  -9.3807  -8.6560  -7.8706
    -7.2323  -6.7092  -6.0638  -4.7134  -4.3648  -3.8265  -3.1651   3.3668
     4.3723   6.0864   6.5602

     occupation numbers 
     1.0000   1.0000   1.0000   1.0000   1.0000   1.0000   1.0000   1.0000
     1.0000   1.0000   1.0000   1.0000   1.0000   1.0000   1.0000   0.0000
     0.0000   0.0000   0.0000

          k = 0.2500 0.1466-0.0000 (  3879 PWs)   bands (ev):

   -26.7774 -26.7505 -20.2022 -16.9828 -11.4348  -9.8582  -9.1930  -8.4003
    -7.0782  -6.7963  -6.2949  -5.0080  -4.5907  -4.0582  -3.0338   2.9204
     4.2260   5.9000   6.9654

     occupation numbers 
     1.0000   1.0000   1.0000   1.0000   1.0000   1.0000   1.0000   1.0000
     1.0000   1.0000   1.0000   1.0000   1.0000   1.0000   1.0000   0.0000
     0.0000   0.0000   0.0000

          k = 0.2500 0.2436-0.0000 (  3895 PWs)   bands (ev):

   -26.6079 -26.5879 -19.6135 -16.4885 -11.4683 -10.5095  -9.7255  -8.7063
    -7.8839  -7.3145  -6.5643  -5.5487  -4.8057  -4.2736  -3.5299   3.3914
     4.5707   6.2049   7.1445

     occupation numbers 
     1.0000   1.0000   1.0000   1.0000   1.0000   1.0000   1.0000   1.0000
     1.0000   1.0000   1.0000   1.0000   1.0000   1.0000   1.0000   0.0000
     0.0000   0.0000   0.0000

          k = 0.2500 0.3406-0.0000 (  3889 PWs)   bands (ev):

   -26.4093 -26.3968 -18.7426 -15.7599 -12.0738 -10.9060 -10.0852  -9.1422
    -8.8048  -8.2243  -7.0188  -6.0581  -5.0404  -4.5318  -4.2585   4.3994
     5.1018   7.0285   7.3541

     occupation numbers 
     1.0000   1.0000   1.0000   1.0000   1.0000   1.0000   1.0000   1.0000
     1.0000   1.0000   1.0000   1.0000   1.0000   1.0000   1.0000   0.0000
     0.0000   0.0000   0.0000

          k = 0.2500-0.7262 0.0000 (  3899 PWs)   bands (ev):

   -26.2346 -26.2283 -17.6206 -14.8279 -12.9544 -11.9205 -10.0092  -9.9396
    -9.5642  -8.4908  -7.5856  -6.3165  -5.3357  -5.0406  -4.5373   4.6530
     5.9478   6.7879   8.8540

     occupation numbers 
     1.0000   1.0000   1.0000   1.0000   1.0000   1.0000   1.0000   1.0000
     1.0000   1.0000   1.0000   1.0000   1.0000   1.0000   1.0000   0.0000
     0.0000   0.0000   0.0000

          k = 0.2500-0.6292 0.0000 (  3889 PWs)   bands (ev):

   -26.1334 -26.1311 -16.4108 -14.2666 -13.6557 -12.7874 -10.9297 -10.2859
    -9.1529  -8.5633  -8.0945  -6.2729  -5.7554  -5.2726  -4.6243   4.7432
     5.7670   7.5527   8.4309

     occupation numbers 
     1.0000   1.0000   1.0000   1.0000   1.0000   1.0000   1.0000   1.0000
     1.0000   1.0000   1.0000   1.0000   1.0000   1.0000   1.0000   0.0000
     0.0000   0.0000   0.0000

          k = 0.2500-0.5323 0.0000 (  3883 PWs)   bands (ev):

   -26.1362 -26.1339 -16.4418 -14.2384 -13.6924 -12.7404 -10.9339 -10.2925
    -9.1519  -8.5612  -8.1014  -6.2616  -5.7559  -5.2735  -4.6269   4.7452
     5.7629   7.5521   8.4441

     occupation numbers 
     1.0000   1.0000   1.0000   1.0000   1.0000   1.0000   1.0000   1.0000
     1.0000   1.0000   1.0000   1.0000   1.0000   1.0000   1.0000   0.0000
     0.0000   0.0000   0.0000

          k = 0.2500-0.4353 0.0000 (  3902 PWs)   bands (ev):

   -26.2420 -26.2356 -17.6549 -14.8623 -12.9186 -11.8894 -10.0191  -9.9480
    -9.5549  -8.4886  -7.5973  -6.2994  -5.3249  -5.0407  -4.5436   4.6576
     5.9393   6.8095   8.9063

     occupation numbers 
     1.0000   1.0000   1.0000   1.0000   1.0000   1.0000   1.0000   1.0000
     1.0000   1.0000   1.0000   1.0000   1.0000   1.0000   1.0000   0.0000
     0.0000   0.0000   0.0000

          k = 0.2500-0.3383-0.0000 (  3889 PWs)   bands (ev):

   -26.4189 -26.4063 -18.7699 -15.7860 -12.0744 -10.8993 -10.0800  -9.1345
    -8.8133  -8.1985  -7.0295  -6.0456  -5.0339  -4.5202  -4.2547   4.4399
     5.1045   7.0550   7.4838

     occupation numbers 
     1.0000   1.0000   1.0000   1.0000   1.0000   1.0000   1.0000   1.0000
     1.0000   1.0000   1.0000   1.0000   1.0000   1.0000   1.0000   0.0000
     0.0000   0.0000   0.0000

          k = 0.2500-0.2413-0.0000 (  3889 PWs)   bands (ev):

   -26.6171 -26.5970 -19.6331 -16.5069 -11.4886 -10.5300  -9.7297  -8.7171
    -7.8458  -7.2942  -6.5544  -5.5510  -4.8042  -4.2546  -3.5036   3.4757
     4.5644   6.3083   7.2003

     occupation numbers 
     1.0000   1.0000   1.0000   1.0000   1.0000   1.0000   1.0000   1.0000
     1.0000   1.0000   1.0000   1.0000   1.0000   1.0000   1.0000   0.0000
     0.0000   0.0000   0.0000

          k = 0.3333-0.1925-0.0000 (  3901 PWs)   bands (ev):

   -26.5218 -26.5059 -19.2144 -16.1619 -12.2141 -10.8652 -10.2010  -8.8666
    -7.5815  -7.3854  -6.6517  -5.9360  -4.9546  -4.2650  -3.3455   2.8562
     4.4256   5.6788   7.3444

     occupation numbers 
     1.0000   1.0000   1.0000   1.0000   1.0000   1.0000   1.0000   1.0000
     1.0000   1.0000   1.0000   1.0000   1.0000   1.0000   1.0000   0.0000
     0.0000   0.0000   0.0000

          k = 0.3333-0.0955-0.0000 (  3887 PWs)   bands (ev):

   -26.6205 -26.6003 -19.6417 -16.5146 -11.4832 -10.5192  -9.7140  -8.7140
    -7.8656  -7.2867  -6.5807  -5.5406  -4.7973  -4.2609  -3.5159   3.4935
     4.5803   6.3170   7.2289

     occupation numbers 
     1.0000   1.0000   1.0000   1.0000   1.0000   1.0000   1.0000   1.0000
     1.0000   1.0000   1.0000   1.0000   1.0000   1.0000   1.0000   0.0000
     0.0000   0.0000   0.0000

          k = 0.3333 0.0015-0.0000 (  3876 PWs)   bands (ev):

   -26.6546 -26.6328 -19.7813 -16.6296 -11.3262  -9.8172  -9.7136  -8.5080
    -8.1978  -7.6439  -6.4483  -5.4520  -4.5978  -4.1590  -3.9475   4.2868
     4.5738   6.5716   7.6264

     occupation numbers 
     1.0000   1.0000   1.0000   1.0000   1.0000   1.0000   1.0000   1.0000
     1.0000   1.0000   1.0000   1.0000   1.0000   1.0000   1.0000   0.0000
     0.0000   0.0000   0.0000

          k = 0.3333 0.0985-0.0000 (  3896 PWs)   bands (ev):

   -26.6149 -26.5947 -19.6310 -16.5042 -11.4584 -10.4875  -9.6935  -8.7001
    -7.9251  -7.2988  -6.6169  -5.5276  -4.7916  -4.2859  -3.5549   3.4293
     4.6037   6.2233   7.1983

     occupation numbers 
     1.0000   1.0000   1.0000   1.0000   1.0000   1.0000   1.0000   1.0000
     1.0000   1.0000   1.0000   1.0000   1.0000   1.0000   1.0000   0.0000
     0.0000   0.0000   0.0000

          k = 0.3333 0.1955-0.0000 (  3904 PWs)   bands (ev):

   -26.5118 -26.4959 -19.1929 -16.1407 -12.1804 -10.8370 -10.1885  -8.8538
    -7.6494  -7.3841  -6.7054  -5.9253  -4.9510  -4.3018  -3.3875   2.7650
     4.4245   5.6054   7.2831

     occupation numbers 
     1.0000   1.0000   1.0000   1.0000   1.0000   1.0000   1.0000   1.0000
     1.0000   1.0000   1.0000   1.0000   1.0000   1.0000   1.0000   0.0000
     0.0000   0.0000   0.0000

          k = 0.3333 0.2925-0.0000 (  3910 PWs)   bands (ev):

   -26.3729 -26.3624 -18.4765 -15.5511 -13.0458 -11.3716 -10.1595  -8.9957
    -8.3431  -7.7022  -7.1037  -6.2505  -5.1499  -4.4620  -3.7974   3.3580
     4.6838   5.7854   7.5083

     occupation numbers 
     1.0000   1.0000   1.0000   1.0000   1.0000   1.0000   1.0000   1.0000
     1.0000   1.0000   1.0000   1.0000   1.0000   1.0000   1.0000   0.0000
     0.0000   0.0000   0.0000

          k = 0.3333-0.7743 0.0000 (  3898 PWs)   bands (ev):

   -26.2356 -26.2299 -17.5134 -14.7949 -13.6635 -12.0365  -9.9730  -9.6696
    -9.1102  -8.2895  -7.6162  -6.3975  -5.4794  -4.6372  -4.4587   4.3589
     5.4038   6.9102   7.3130

     occupation numbers 
     1.0000   1.0000   1.0000   1.0000   1.0000   1.0000   1.0000   1.0000
     1.0000   1.0000   1.0000   1.0000   1.0000   1.0000   1.0000   0.0000
     0.0000   0.0000   0.0000

          k = 0.3333-0.6774 0.0000 (  3882 PWs)   bands (ev):

   -26.1368 -26.1346 -16.4286 -14.3188 -13.6119 -12.7969 -10.9211 -10.2601
    -9.1597  -8.5643  -8.0873  -6.2767  -5.7500  -5.2615  -4.6219   4.7281
     5.7874   7.5681   8.4938

     occupation numbers 
     1.0000   1.0000   1.0000   1.0000   1.0000   1.0000   1.0000   1.0000
     1.0000   1.0000   1.0000   1.0000   1.0000   1.0000   1.0000   0.0000
     0.0000   0.0000   0.0000

          k = 0.3333-0.5804 0.0000 (  3867 PWs)   bands (ev):

   -26.1028 -26.1023 -15.8216 -13.9694 -13.9623 -12.8753 -11.1093 -11.1011
    -8.6533  -8.6088  -8.6037  -5.8965  -5.8448  -5.8398  -4.6469   5.1779
     5.2060   8.3998   9.1133

     occupation numbers 
     1.0000   1.0000   1.0000   1.0000   1.0000   1.0000   1.0000   1.0000
     1.0000   1.0000   1.0000   1.0000   1.0000   1.0000   1.0000   0.0000
     0.0000   0.0000   0.0000

          k = 0.3333-0.4834-0.0000 (  3887 PWs)   bands (ev):

   -26.1432 -26.1409 -16.4770 -14.3474 -13.6018 -12.7593 -10.9165 -10.2402
    -9.1656  -8.5633  -8.0873  -6.2692  -5.7448  -5.2509  -4.6226   4.7145
     5.8040   7.5754   8.5650

     occupation numbers 
     1.0000   1.0000   1.0000   1.0000   1.0000   1.0000   1.0000   1.0000
     1.0000   1.0000   1.0000   1.0000   1.0000   1.0000   1.0000   0.0000
     0.0000   0.0000   0.0000

          k = 0.3333-0.3864-0.0000 (  3898 PWs)   bands (ev):

   -26.2463 -26.2405 -17.5568 -14.8468 -13.6474 -12.0252  -9.9665  -9.6559
    -9.1021  -8.2624  -7.6206  -6.3902  -5.4710  -4.6171  -4.4505   4.3646
     5.4571   6.9640   7.4026

     occupation numbers 
     1.0000   1.0000   1.0000   1.0000   1.0000   1.0000   1.0000   1.0000
     1.0000   1.0000   1.0000   1.0000   1.0000   1.0000   1.0000   0.0000
     0.0000   0.0000   0.0000

          k = 0.3333-0.2894-0.0000 (  3900 PWs)   bands (ev):

   -26.3848 -26.3743 -18.5090 -15.5848 -13.0609 -11.3877 -10.1702  -8.9983
    -8.2972  -7.6789  -7.0792  -6.2498  -5.1469  -4.4376  -3.7653   3.4545
     4.6715   5.8932   7.5847

     occupation numbers 
     1.0000   1.0000   1.0000   1.0000   1.0000   1.0000   1.0000   1.0000
     1.0000   1.0000   1.0000   1.0000   1.0000   1.0000   1.0000   0.0000
     0.0000   0.0000   0.0000

          k = 0.4167-0.2406-0.0000 (  3887 PWs)   bands (ev):

   -26.3212 -26.3139 -17.9895 -15.2213 -13.9591 -12.1222 -10.0683  -9.0789
    -7.9561  -7.7077  -6.9360  -6.5766  -5.1662  -4.4153  -3.5595   2.8636
     4.2489   5.2450   7.5633

     occupation numbers 
     1.0000   1.0000   1.0000   1.0000   1.0000   1.0000   1.0000   1.0000
     1.0000   1.0000   1.0000   1.0000   1.0000   1.0000   1.0000   0.0000
     0.0000   0.0000   0.0000

          k = 0.4167-0.1436-0.0000 (  3905 PWs)   bands (ev):

   -26.3875 -26.3768 -18.5197 -15.5940 -13.0437 -11.3720 -10.1722  -8.9927
    -8.3181  -7.6624  -7.1048  -6.2417  -5.1454  -4.4401  -3.7739   3.4663
     4.6824   5.9044   7.5961

     occupation numbers 
     1.0000   1.0000   1.0000   1.0000   1.0000   1.0000   1.0000   1.0000
     1.0000   1.0000   1.0000   1.0000   1.0000   1.0000   1.0000   0.0000
     0.0000   0.0000   0.0000

          k = 0.4167-0.0466-0.0000 (  3891 PWs)   bands (ev):

   -26.4249 -26.4122 -18.7896 -15.8038 -12.0455 -10.8785 -10.0745  -9.1406
    -8.8363  -8.1906  -7.0518  -6.0286  -5.0234  -4.5190  -4.2721   4.4509
     5.1200   7.0665   7.5097

     occupation numbers 
     1.0000   1.0000   1.0000   1.0000   1.0000   1.0000   1.0000   1.0000
     1.0000   1.0000   1.0000   1.0000   1.0000   1.0000   1.0000   0.0000
     0.0000   0.0000   0.0000

          k = 0.4167 0.0504-0.0000 (  3892 PWs)   bands (ev):

   -26.4216 -26.4089 -18.7826 -15.7963 -12.0162 -10.8642 -10.0751  -9.1549
    -8.8497  -8.2089  -7.0629  -6.0239  -5.0189  -4.5294  -4.2937   4.4218
     5.1368   7.0449   7.4095

     occupation numbers 
     1.0000   1.0000   1.0000   1.0000   1.0000   1.0000   1.0000   1.0000
     1.0000   1.0000   1.0000   1.0000   1.0000   1.0000   1.0000   0.0000
     0.0000   0.0000   0.0000

          k = 0.4167 0.1474-0.0000 (  3901 PWs)   bands (ev):

   -26.3782 -26.3676 -18.4983 -15.5700 -13.0109 -11.3397 -10.1638  -8.9837
    -8.3868  -7.6668  -7.1571  -6.2334  -5.1473  -4.4667  -3.8150   3.3834
     4.7065   5.8077   7.5268

     occupation numbers 
     1.0000   1.0000   1.0000   1.0000   1.0000   1.0000   1.0000   1.0000
     1.0000   1.0000   1.0000   1.0000   1.0000   1.0000   1.0000   0.0000
     0.0000   0.0000   0.0000

          k = 0.4167 0.2443-0.0000 (  3893 PWs)   bands (ev):

   -26.3084 -26.3011 -17.9530 -15.1735 -13.9514 -12.0993 -10.0542  -9.0659
    -8.0310  -7.7099  -6.9966  -6.5720  -5.1632  -4.4544  -3.6038   2.7523
     4.2645   5.1478   7.5192

     occupation numbers 
     1.0000   1.0000   1.0000   1.0000   1.0000   1.0000   1.0000   1.0000
     1.0000   1.0000   1.0000   1.0000   1.0000   1.0000   1.0000   0.0000
     0.0000   0.0000   0.0000

          k = 0.4167-0.8224 0.0000 (  3913 PWs)   bands (ev):

   -26.2331 -26.2291 -17.2161 -15.0428 -14.1286 -12.7470  -9.8403  -9.2289
    -8.6095  -7.8089  -7.4457  -6.6446  -5.3384  -4.5497  -3.9399   3.5286
     4.2486   5.6536   7.7803

     occupation numbers 
     1.0000   1.0000   1.0000   1.0000   1.0000   1.0000   1.0000   1.0000
     1.0000   1.0000   1.0000   1.0000   1.0000   1.0000   1.0000   0.0000
     0.0000   0.0000   0.0000

          k = 0.4167-0.7255 0.0000 (  3903 PWs)   bands (ev):

   -26.1730 -26.1708 -16.5983 -15.0290 -13.5743 -13.0504 -10.1811  -9.4715
    -9.2553  -8.2844  -7.9002  -6.5014  -5.6426  -4.6201  -4.5845   4.3884
     5.3110   7.0040   7.3058

     occupation numbers 
     1.0000   1.0000   1.0000   1.0000   1.0000   1.0000   1.0000   1.0000
     1.0000   1.0000   1.0000   1.0000   1.0000   1.0000   1.0000   0.0000
     0.0000   0.0000   0.0000

          k = 0.4167-0.6285-0.0000 (  3879 PWs)   bands (ev):

   -26.1423 -26.1399 -16.4889 -14.2699 -13.6778 -12.7043 -10.9300 -10.2733
    -9.1575  -8.5603  -8.1009  -6.2546  -5.7511  -5.2631  -4.6270   4.7326
     5.7784   7.5653   8.5238

     occupation numbers 
     1.0000   1.0000   1.0000   1.0000   1.0000   1.0000   1.0000   1.0000
     1.0000   1.0000   1.0000   1.0000   1.0000   1.0000   1.0000   0.0000
     0.0000   0.0000   0.0000

          k = 0.4167-0.5315-0.0000 (  3889 PWs)   bands (ev):

   -26.1458 -26.1435 -16.5064 -14.3259 -13.6317 -12.7137 -10.9211 -10.2468
    -9.1644  -8.5613  -8.0940  -6.2584  -5.7453  -5.2517  -4.6251   4.7170
     5.7990   7.5734   8.5815

     occupation numbers 
     1.0000   1.0000   1.0000   1.0000   1.0000   1.0000   1.0000   1.0000
     1.0000   1.0000   1.0000   1.0000   1.0000   1.0000   1.0000   0.0000
     0.0000   0.0000   0.0000

          k = 0.4167-0.4345-0.0000 (  3895 PWs)   bands (ev):

   -26.1826 -26.1805 -16.6507 -15.0593 -13.5880 -13.0409 -10.1433  -9.4617
    -9.2572  -8.2531  -7.8971  -6.5032  -5.6304  -4.6048  -4.5649   4.3633
     5.4131   7.0440   7.3852

     occupation numbers 
     1.0000   1.0000   1.0000   1.0000   1.0000   1.0000   1.0000   1.0000
     1.0000   1.0000   1.0000   1.0000   1.0000   1.0000   1.0000   0.0000
     0.0000   0.0000   0.0000

          k = 0.4167-0.3375-0.0000 (  3910 PWs)   bands (ev):

   -26.2461 -26.2421 -17.2684 -15.0927 -14.1280 -12.7514  -9.8551  -9.2305
    -8.5516  -7.7961  -7.4030  -6.6435  -5.3333  -4.5234  -3.9029   3.6394
     4.2400   5.7558   7.8298

     occupation numbers 
     1.0000   1.0000   1.0000   1.0000   1.0000   1.0000   1.0000   1.0000
     1.0000   1.0000   1.0000   1.0000   1.0000   1.0000   1.0000   0.0000
     0.0000   0.0000   0.0000

          k =-0.5000 0.2887 0.0000 (  3882 PWs)   bands (ev):

   -26.2452 -26.2424 -17.0490 -15.4603 -13.9776 -13.2076  -9.8195  -9.2616
    -8.0867  -7.7867  -7.0379  -6.8038  -5.2486  -4.4668  -3.6312   2.9587
     3.9438   5.1801   7.9226

     occupation numbers 
     1.0000   1.0000   1.0000   1.0000   1.0000   1.0000   1.0000   1.0000
     1.0000   1.0000   1.0000   1.0000   1.0000   1.0000   1.0000   0.0000
     0.0000   0.0000   0.0000

          k =-0.5000 0.3857 0.0000 (  3905 PWs)   bands (ev):

   -26.2471 -26.2431 -17.2781 -15.0864 -14.1327 -12.7378  -9.8599  -9.2236
    -8.5610  -7.7861  -7.4160  -6.6407  -5.3331  -4.5239  -3.9060   3.6423
     4.2457   5.7599   7.8324

     occupation numbers 
     1.0000   1.0000   1.0000   1.0000   1.0000   1.0000   1.0000   1.0000
     1.0000   1.0000   1.0000   1.0000   1.0000   1.0000   1.0000   0.0000
     0.0000   0.0000   0.0000

          k =-0.5000 0.4826 0.0000 (  3894 PWs)   bands (ev):

   -26.2499 -26.2441 -17.5795 -14.8623 -13.6222 -11.9928  -9.9825  -9.6578
    -9.1075  -8.2522  -7.6413  -6.3767  -5.4704  -4.6084  -4.4674   4.3701
     5.4619   6.9905   7.3911

     occupation numbers 
     1.0000   1.0000   1.0000   1.0000   1.0000   1.0000   1.0000   1.0000
     1.0000   1.0000   1.0000   1.0000   1.0000   1.0000   1.0000   0.0000
     0.0000   0.0000   0.0000

          k =-0.5000 0.5796 0.0000 (  3907 PWs)   bands (ev):

   -26.2491 -26.2425 -17.6882 -14.8944 -12.8835 -11.8588 -10.0248  -9.9618
    -9.5456  -8.4864  -7.6088  -6.2827  -5.3145  -5.0409  -4.5495   4.6639
     5.9278   6.8324   8.9964

     occupation numbers 
     1.0000   1.0000   1.0000   1.0000   1.0000   1.0000   1.0000   1.0000
     1.0000   1.0000   1.0000   1.0000   1.0000   1.0000   1.0000   0.0000
     0.0000   0.0000   0.0000

          k =-0.5000 0.6766 0.0000 (  3899 PWs)   bands (ev):

   -26.2430 -26.2372 -17.5597 -14.8285 -13.6105 -11.9706 -10.0060  -9.6747
    -9.1197  -8.2702  -7.6568  -6.3699  -5.4787  -4.6189  -4.4936   4.3696
     5.4182   6.9626   7.2887

     occupation numbers 
     1.0000   1.0000   1.0000   1.0000   1.0000   1.0000   1.0000   1.0000
     1.0000   1.0000   1.0000   1.0000   1.0000   1.0000   1.0000   0.0000
     0.0000   0.0000   0.0000

          k =-0.5000 0.7736 0.0000 (  3914 PWs)   bands (ev):

   -26.2351 -26.2311 -17.2361 -15.0289 -14.1392 -12.7190  -9.8504  -9.2137
    -8.6294  -7.7858  -7.4750  -6.6386  -5.3381  -4.5506  -3.9465   3.5359
     4.2592   5.6620   7.7823

     occupation numbers 
     1.0000   1.0000   1.0000   1.0000   1.0000   1.0000   1.0000   1.0000
     1.0000   1.0000   1.0000   1.0000   1.0000   1.0000   1.0000   0.0000
     0.0000   0.0000   0.0000

          k =-0.5000-0.2932 0.0001 (  3902 PWs)   bands (ev):

   -26.2313 -26.2285 -16.9897 -15.4267 -13.9558 -13.2066  -9.8008  -9.2510
    -8.1639  -7.7894  -7.1008  -6.8013  -5.2461  -4.5067  -3.6763   2.8293
     3.9700   5.0752   7.9139

     occupation numbers 
     1.0000   1.0000   1.0000   1.0000   1.0000   1.0000   1.0000   1.0000
     1.0000   1.0000   1.0000   1.0000   1.0000   1.0000   1.0000   0.0000
     0.0000   0.0000   0.0000

     the Fermi energy is     0.2887 ev

!    total energy              =    -189.94109970 Ry
     Harris-Foulkes estimate   =    -189.94109980 Ry
     estimated scf accuracy    <       0.00000012 Ry

     total all-electron energy =      -701.913214 Ry

     The total energy is the sum of the following terms:

     one-electron contribution =   -1519.01698563 Ry
     hartree contribution      =     769.20055174 Ry
     xc contribution           =     -37.19439263 Ry
     ewald contribution        =     642.06700670 Ry
     one-center paw contrib.   =     -44.99727987 Ry
      -> PAW hartree energy AE =     117.82811812 Ry
      -> PAW hartree energy PS =    -117.74828725 Ry
      -> PAW xc energy AE      =     -80.53204165 Ry
      -> PAW xc energy PS      =      35.45493092 Ry
      -> total E_H with PAW    =     769.28038260 Ry
      -> total E_XC with PAW   =     -82.27150337 Ry
     smearing contrib. (-TS)   =      -0.00000000 Ry

     convergence has been achieved in   8 iterations

     negative rho (up, down):  6.175E-04 0.000E+00

     Forces acting on atoms (cartesian axes, Ry/au):

     atom    1 type  1   force =    -0.00022343    0.00052303   -0.00971523
     atom    2 type  1   force =     0.00036259   -0.00076604    0.00098382
     atom    3 type  1   force =     0.00022246   -0.00052318    0.00966535
     atom    4 type  1   force =    -0.00036193    0.00076415   -0.00106316
     atom    5 type  2   force =    -0.00006646    0.00012238    0.01714907
     atom    6 type  2   force =     0.00006677   -0.00012034   -0.01701985
     The non-local contrib.  to forces
     atom    1 type  1   force =    -0.00250137    0.00438892   -0.40709205
     atom    2 type  1   force =     0.00237294   -0.00419490    0.08803896
     atom    3 type  1   force =     0.00249984   -0.00438992    0.40713060
     atom    4 type  1   force =    -0.00237573    0.00419323   -0.08799306
     atom    5 type  2   force =     0.00054239   -0.00084932    3.17377448
     atom    6 type  2   force =    -0.00051990    0.00086602   -3.17361072
     The ionic contribution  to forces
     atom    1 type  1   force =    -0.02728303    0.04695094  -13.54369081
     atom    2 type  1   force =     0.02841453   -0.04872798   -9.44471149
     atom    3 type  1   force =     0.02732239   -0.04692824   13.54385117
     atom    4 type  1   force =    -0.02842309    0.04872211    9.44469050
     atom    5 type  2   force =    -0.00322445    0.00535221  -67.38993195
     atom    6 type  2   force =     0.00319365   -0.00536903   67.38979258
     The local contribution  to forces
     atom    1 type  1   force =     0.02939394   -0.05052409   13.93308441
     atom    2 type  1   force =    -0.03025607    0.05186421    9.35973766
     atom    3 type  1   force =    -0.02943129    0.05050187  -13.93308811
     atom    4 type  1   force =     0.03026592   -0.05185849   -9.35951338
     atom    5 type  2   force =     0.00261556   -0.00438038   64.24397854
     atom    6 type  2   force =    -0.00260844    0.00438426  -64.24389252
     The core correction contribution to forces
     atom    1 type  1   force =     0.00016764   -0.00029396    0.00857147
     atom    2 type  1   force =    -0.00016845    0.00029156   -0.00154352
     atom    3 type  1   force =    -0.00016987    0.00029523   -0.00865141
     atom    4 type  1   force =     0.00016956   -0.00029097    0.00140789
     atom    5 type  2   force =    -0.00000061    0.00000045   -0.01025324
     atom    6 type  2   force =     0.00000162   -0.00000120    0.01025145
     The Hubbard contrib.    to forces
     atom    1 type  1   force =     0.00000000    0.00000000    0.00000000
     atom    2 type  1   force =     0.00000000    0.00000000    0.00000000
     atom    3 type  1   force =     0.00000000    0.00000000    0.00000000
     atom    4 type  1   force =     0.00000000    0.00000000    0.00000000
     atom    5 type  2   force =     0.00000000    0.00000000    0.00000000
     atom    6 type  2   force =     0.00000000    0.00000000    0.00000000
     The SCF correction term to forces
     atom    1 type  1   force =    -0.00000113    0.00000171   -0.00060404
     atom    2 type  1   force =    -0.00000087    0.00000156   -0.00055358
     atom    3 type  1   force =     0.00000088   -0.00000163    0.00040731
     atom    4 type  1   force =     0.00000090   -0.00000123    0.00032910
     atom    5 type  2   force =     0.00000013   -0.00000010   -0.00043455
     atom    6 type  2   force =    -0.00000067    0.00000010    0.00042356

     Total force =     0.027853     Total SCF correction =     0.001146


     Computing stress (Cartesian axis) and pressure


     negative rho (up, down):  6.175E-04 0.000E+00
          total   stress  (Ry/bohr**3)                   (kbar)     P=  -15.61
  -0.00012983   0.00003334   0.00000086        -19.10      4.91      0.13
   0.00003334  -0.00001459  -0.00000188          4.91     -2.15     -0.28
   0.00000086  -0.00000188  -0.00017390          0.13     -0.28    -25.58

     kinetic stress (kbar)   9249.58      5.04     -0.96
                                5.04   9266.81      1.58
                               -0.96      1.58   8402.50

     local   stress (kbar)-291665.42    -30.36    -19.53
                              -30.36-291767.58     33.25
                              -19.53     33.25 281289.89

     nonloc. stress (kbar)   3170.19      0.13      0.28
                                0.13   3170.67     -0.49
                                0.28     -0.49   2904.02

     hartree stress (kbar) 143788.22     10.29      4.77
                               10.29 143822.59     -8.08
                                4.77     -8.08-139255.91

     exc-cor stress (kbar)  -1141.59      0.03      0.02
                                0.03  -1141.48     -0.04
                                0.02     -0.04  -1138.31

     corecor stress (kbar)   -947.74     -0.09     -0.05
                               -0.09   -948.07      0.08
                               -0.05      0.08   -939.94

     ewald   stress (kbar) 137527.67     19.86     15.60
                               19.86 137594.93    -26.59
                               15.60    -26.59-151287.82

     hubbard stress (kbar)      0.00      0.00      0.00
                                0.00      0.00      0.00
                                0.00      0.00      0.00

     london  stress (kbar)      0.00      0.00      0.00
                                0.00      0.00      0.00
                                0.00      0.00      0.00

     DFT-D3  stress (kbar)      0.00      0.00      0.00
                                0.00      0.00      0.00
                                0.00      0.00      0.00

     XDM     stress (kbar)      0.00      0.00      0.00
                                0.00      0.00      0.00
                                0.00      0.00      0.00

     dft-nl  stress (kbar)      0.00      0.00      0.00
                                0.00      0.00      0.00
                                0.00      0.00      0.00

     TS-vdW  stress (kbar)      0.00      0.00      0.00
                                0.00      0.00      0.00
                                0.00      0.00      0.00

     3D-RISM stress (kbar)      0.00      0.00      0.00
                                0.00      0.00      0.00
                                0.00      0.00      0.00



     Writing output data file pwscf.save\

     init_run     :     15.97s CPU      7.75s WALL (       1 calls)
     electrons    :     98.50s CPU     62.24s WALL (       1 calls)
     forces       :      7.92s CPU      1.39s WALL (       1 calls)
     stress       :     22.91s CPU      5.15s WALL (       1 calls)

     Called by init_run:
     wfcinit      :      4.67s CPU      3.04s WALL (       1 calls)
     wfcinit:atom :      0.23s CPU      0.16s WALL (      74 calls)
     wfcinit:wfcr :      3.53s CPU      2.34s WALL (      74 calls)
     potinit      :      4.41s CPU      0.59s WALL (       1 calls)
     hinit0       :      6.81s CPU      3.99s WALL (       1 calls)

     Called by electrons:
     c_bands      :     75.94s CPU     50.49s WALL (       8 calls)
     sum_band     :     17.92s CPU      9.53s WALL (       8 calls)
     v_of_rho     :      1.39s CPU      0.52s WALL (       9 calls)
     v_h          :      0.02s CPU      0.02s WALL (       9 calls)
     v_xc         :      1.81s CPU      0.60s WALL (      11 calls)
     newd         :      0.80s CPU      0.57s WALL (       9 calls)
     PAW_pot      :      2.58s CPU      1.25s WALL (       9 calls)
     mix_rho      :      0.27s CPU      0.08s WALL (       8 calls)

     Called by c_bands:
     init_us_2    :      1.62s CPU      0.85s WALL (    1406 calls)
     cegterg      :     72.69s CPU     48.93s WALL (     592 calls)

     Called by sum_band:
     sum_band:bec :      0.23s CPU      0.38s WALL (     592 calls)
     addusdens    :      0.98s CPU      0.75s WALL (       8 calls)

     Called by *egterg:
     h_psi        :     66.56s CPU     39.98s WALL (    2703 calls)
     s_psi        :      1.78s CPU      1.63s WALL (    2703 calls)
     g_psi        :      0.31s CPU      0.30s WALL (    2037 calls)
     cdiaghg      :      1.66s CPU      1.77s WALL (    2629 calls)
     cegterg:over :      2.33s CPU      2.44s WALL (    2037 calls)
     cegterg:upda :      1.22s CPU      1.95s WALL (    2037 calls)
     cegterg:last :      0.36s CPU      0.57s WALL (     595 calls)

     Called by h_psi:
     h_psi:pot    :     65.69s CPU     39.22s WALL (    2703 calls)
     h_psi:calbec :      4.50s CPU      1.97s WALL (    2703 calls)
     vloc_psi     :     59.41s CPU     35.60s WALL (    2703 calls)
     add_vuspsi   :      1.72s CPU      1.64s WALL (    2703 calls)

     General routines
     calbec       :      6.17s CPU      2.85s WALL (    3665 calls)
     fft          :      0.14s CPU      0.11s WALL (     140 calls)
     ffts         :      0.03s CPU      0.01s WALL (      17 calls)
     fftw         :     36.00s CPU     19.36s WALL (   78202 calls)
     interpolate  :      0.02s CPU      0.02s WALL (       9 calls)

     Parallel routines

     PAW routines
     PAW_pot      :      2.58s CPU      1.25s WALL (       9 calls)

     PWSCF        :   2m27.41s CPU   1m19.07s WALL


   This run was terminated on:  14:22:20   1Dec2024            

=------------------------------------------------------------------------------=
   JOB DONE.
=------------------------------------------------------------------------------=
