
     Program PWSCF v.6.4.1 starts on  1Dec2024 at 14:11:45 

     This program is part of the open-source Quantum ESPRESSO suite
     for quantum simulation of materials; please cite
         "P. Giannozzi et al., J. Phys.:Condens. Matter 21 395502 (2009);
         "P. Giannozzi et al., J. Phys.:Condens. Matter 29 465901 (2017);
          URL http://www.quantum-espresso.org", 
     in publications or presentations arising from this work. More details at
     http://www.quantum-espresso.org/quote

     Parallel version (MPI & OpenMP), running on      12 processor cores
     Number of MPI processes:                 1
     Threads/MPI process:                    12

     MPI processes distributed on     1 nodes
     Waiting for input...
     Reading input from standard input
Warning: card &IONS ignored
Warning: card ION_DYNAMICS = 'BFGS' ignored
Warning: card / ignored
Warning: card &CELL ignored
Warning: card CELL_DOFREE = 'ALL' ignored
Warning: card CELL_DYNAMICS = 'BFGS' ignored
Warning: card PRESS = 0.0 ignored
Warning: card PRESS_CONV_THR = 0.5 ignored
Warning: card / ignored

     Current dimensions of program PWSCF are:
     Max number of different atomic species (ntypx) = 10
     Max number of k-points (npk) =  40000
     Max angular momentum in pseudopotentials (lmaxx) =  3
               file C.pbesol-n-kjpaw_psl.1.0.0.UPF: wavefunction(s)  2S 2P renormalized
               file F.pbesol-n-kjpaw_psl.1.0.0.UPF: wavefunction(s)  2S 2P renormalized

     Subspace diagonalization in iterative solution of the eigenvalue problem:
     a serial algorithm will be used


     G-vector sticks info
     --------------------
     sticks:   dense  smooth     PW     G-vecs:    dense   smooth      PW
     Sum         569     283     95                85731    30205    6129



     bravais-lattice index     =            0
     lattice parameter (alat)  =       4.7168  a.u.
     unit-cell volume          =     741.9135 (a.u.)^3
     number of atoms/cell      =            6
     number of atomic types    =            2
     number of electrons       =        30.00
     number of Kohn-Sham states=           19
     kinetic-energy cutoff     =      45.0000  Ry
     charge density cutoff     =     360.0000  Ry
     convergence threshold     =      1.0E-06
     mixing beta               =       0.7000
     number of iterations used =            8  plain     mixing
     Exchange-correlation      = SLA PW PSX PSC ( 1  4 10  8 0 0)

     celldm(1)=   4.716778  celldm(2)=   0.000000  celldm(3)=   0.000000
     celldm(4)=   0.000000  celldm(5)=   0.000000  celldm(6)=   0.000000

     crystal axes: (cart. coord. in units of alat)
               a(1) = (   1.000000  -0.000000   0.000000 )  
               a(2) = (   0.510016   0.883374   0.000000 )  
               a(3) = (   0.000653   0.000383   8.003364 )  

     reciprocal axes: (cart. coord. in units 2 pi/alat)
               b(1) = (  1.000000 -0.577350 -0.000054 )  
               b(2) = (  0.000000  1.132024 -0.000054 )  
               b(3) = ( -0.000000  0.000000  0.124947 )  


     PseudoPot. # 1 for C  read from file:
     .\C.pbesol-n-kjpaw_psl.1.0.0.UPF
     MD5 check sum: f9b2fe17d1f478429498b05d17159f9e
     Pseudo is Projector augmented-wave + core cor, Zval =  4.0
     Generated using "atomic" code by A. Dal Corso v.6.3
     Shape of augmentation charge: PSQ
     Using radial grid of 1073 points,  4 beta functions with: 
                l(1) =   0
                l(2) =   0
                l(3) =   1
                l(4) =   1
     Q(r) pseudized with 0 coefficients 


     PseudoPot. # 2 for F  read from file:
     .\F.pbesol-n-kjpaw_psl.1.0.0.UPF
     MD5 check sum: d939582bcd23f1ece12cfc4fab8d9d36
     Pseudo is Projector augmented-wave + core cor, Zval =  7.0
     Generated using "atomic" code by A. Dal Corso v.6.3
     Shape of augmentation charge: PSQ
     Using radial grid of 1105 points,  4 beta functions with: 
                l(1) =   0
                l(2) =   0
                l(3) =   1
                l(4) =   1
     Q(r) pseudized with 0 coefficients 


     atomic species   valence    mass     pseudopotential
        C              4.00    12.01070     C ( 1.00)
        F              7.00    18.99840     F ( 1.00)

     No symmetry found


                                    s                        frac. trans.

      isym =  1     identity                                     

 cryst.   s( 1) = (     1          0          0      )
                  (     0          1          0      )
                  (     0          0          1      )

 cart.    s( 1) = (  1.0000000 -0.0000000  0.0000000 )
                  (  0.0000000  1.0000000  0.0000000 )
                  (  0.0000000  0.0000000  1.0000000 )


   Cartesian axes

     site n.     atom                  positions (alat units)
         1           C   tau(   1) = (   0.0003586   0.0002111   4.0291206  )
         2           C   tau(   2) = (   0.5036981   0.2946693   4.2306385  )
         3           C   tau(   3) = (   1.0070340   0.5891236   5.0547148  )
         4           C   tau(   4) = (   0.5036949   0.2946657   4.8531926  )
         5           F   tau(   5) = (   0.0003512   0.0002060   3.4769734  )
         6           F   tau(   6) = (   1.0070374   0.5891265   5.6068654  )

   Crystallographic axes

     site n.     atom                  positions (cryst. coord.)
         1           C   tau(   1) = (  0.0000192  0.0000206  0.5034284  )
         2           C   tau(   2) = (  0.3333424  0.3333434  0.5286075  )
         3           C   tau(   3) = (  0.6666304  0.6666281  0.6315738  )
         4           C   tau(   4) = (  0.3333076  0.3333056  0.6063941  )
         5           F   tau(   5) = (  0.0000446  0.0000447  0.4344390  )
         6           F   tau(   6) = (  0.6666024  0.6666014  0.7005636  )

     number of k points=    74  Marzari-Vanderbilt smearing, width (Ry)=  0.0200
                       cart. coord. in units 2pi/alat
        k(    1) = (   0.0000000   0.0000000   0.0000000), wk =   0.0138889
        k(    2) = (   0.0000000   0.0943353  -0.0000045), wk =   0.0277778
        k(    3) = (   0.0000000   0.1886706  -0.0000090), wk =   0.0277778
        k(    4) = (   0.0000001   0.2830059  -0.0000136), wk =   0.0277778
        k(    5) = (   0.0000001   0.3773412  -0.0000181), wk =   0.0277778
        k(    6) = (   0.0000001   0.4716765  -0.0000226), wk =   0.0277778
        k(    7) = (  -0.0000001  -0.5660118   0.0000271), wk =   0.0138889
        k(    8) = (   0.0833333  -0.0481125  -0.0000045), wk =   0.0277778
        k(    9) = (   0.0833333   0.0462228  -0.0000090), wk =   0.0277778
        k(   10) = (   0.0833334   0.1405581  -0.0000135), wk =   0.0277778
        k(   11) = (   0.0833334   0.2348934  -0.0000181), wk =   0.0277778
        k(   12) = (   0.0833334   0.3292287  -0.0000226), wk =   0.0277778
        k(   13) = (   0.0833334   0.4235640  -0.0000271), wk =   0.0277778
        k(   14) = (   0.0833332  -0.6141243   0.0000226), wk =   0.0277778
        k(   15) = (   0.0833332  -0.5197890   0.0000181), wk =   0.0277778
        k(   16) = (   0.0833332  -0.4254537   0.0000136), wk =   0.0277778
        k(   17) = (   0.0833333  -0.3311184   0.0000091), wk =   0.0277778
        k(   18) = (   0.0833333  -0.2367831   0.0000045), wk =   0.0277778
        k(   19) = (   0.0833333  -0.1424478   0.0000000), wk =   0.0277778
        k(   20) = (   0.1666666  -0.0962250  -0.0000090), wk =   0.0277778
        k(   21) = (   0.1666667  -0.0018897  -0.0000135), wk =   0.0277778
        k(   22) = (   0.1666667   0.0924456  -0.0000180), wk =   0.0277778
        k(   23) = (   0.1666667   0.1867809  -0.0000225), wk =   0.0277778
        k(   24) = (   0.1666667   0.2811162  -0.0000271), wk =   0.0277778
        k(   25) = (   0.1666667   0.3754515  -0.0000316), wk =   0.0277778
        k(   26) = (   0.1666665  -0.6622368   0.0000181), wk =   0.0277778
        k(   27) = (   0.1666665  -0.5679015   0.0000136), wk =   0.0277778
        k(   28) = (   0.1666666  -0.4735662   0.0000091), wk =   0.0277778
        k(   29) = (   0.1666666  -0.3792309   0.0000046), wk =   0.0277778
        k(   30) = (   0.1666666  -0.2848956   0.0000000), wk =   0.0277778
        k(   31) = (   0.1666666  -0.1905603  -0.0000045), wk =   0.0277778
        k(   32) = (   0.2500000  -0.1443375  -0.0000135), wk =   0.0277778
        k(   33) = (   0.2500000  -0.0500022  -0.0000180), wk =   0.0277778
        k(   34) = (   0.2500000   0.0443331  -0.0000225), wk =   0.0277778
        k(   35) = (   0.2500000   0.1386684  -0.0000270), wk =   0.0277778
        k(   36) = (   0.2500000   0.2330037  -0.0000316), wk =   0.0277778
        k(   37) = (   0.2500001   0.3273390  -0.0000361), wk =   0.0277778
        k(   38) = (   0.2499999  -0.7103493   0.0000136), wk =   0.0277778
        k(   39) = (   0.2499999  -0.6160140   0.0000091), wk =   0.0277778
        k(   40) = (   0.2499999  -0.5216787   0.0000046), wk =   0.0277778
        k(   41) = (   0.2499999  -0.4273434   0.0000001), wk =   0.0277778
        k(   42) = (   0.2499999  -0.3330081  -0.0000045), wk =   0.0277778
        k(   43) = (   0.2499999  -0.2386728  -0.0000090), wk =   0.0277778
        k(   44) = (   0.3333333  -0.1924500  -0.0000180), wk =   0.0277778
        k(   45) = (   0.3333333  -0.0981147  -0.0000225), wk =   0.0277778
        k(   46) = (   0.3333333  -0.0037794  -0.0000270), wk =   0.0277778
        k(   47) = (   0.3333334   0.0905559  -0.0000315), wk =   0.0277778
        k(   48) = (   0.3333334   0.1848912  -0.0000361), wk =   0.0277778
        k(   49) = (   0.3333334   0.2792265  -0.0000406), wk =   0.0277778
        k(   50) = (   0.3333332  -0.7584619   0.0000091), wk =   0.0277778
        k(   51) = (   0.3333332  -0.6641265   0.0000046), wk =   0.0277778
        k(   52) = (   0.3333332  -0.5697912   0.0000001), wk =   0.0277778
        k(   53) = (   0.3333332  -0.4754559  -0.0000044), wk =   0.0277778
        k(   54) = (   0.3333333  -0.3811206  -0.0000090), wk =   0.0277778
        k(   55) = (   0.3333333  -0.2867853  -0.0000135), wk =   0.0277778
        k(   56) = (   0.4166666  -0.2405625  -0.0000225), wk =   0.0277778
        k(   57) = (   0.4166666  -0.1462272  -0.0000270), wk =   0.0277778
        k(   58) = (   0.4166667  -0.0518919  -0.0000315), wk =   0.0277778
        k(   59) = (   0.4166667   0.0424434  -0.0000360), wk =   0.0277778
        k(   60) = (   0.4166667   0.1367787  -0.0000406), wk =   0.0277778
        k(   61) = (   0.4166667   0.2311140  -0.0000451), wk =   0.0277778
        k(   62) = (   0.4166665  -0.8065744   0.0000046), wk =   0.0277778
        k(   63) = (   0.4166665  -0.7122391   0.0000001), wk =   0.0277778
        k(   64) = (   0.4166665  -0.6179038  -0.0000044), wk =   0.0277778
        k(   65) = (   0.4166666  -0.5235684  -0.0000089), wk =   0.0277778
        k(   66) = (   0.4166666  -0.4292331  -0.0000135), wk =   0.0277778
        k(   67) = (   0.4166666  -0.3348978  -0.0000180), wk =   0.0277778
        k(   68) = (  -0.4999999   0.2886750   0.0000270), wk =   0.0138889
        k(   69) = (  -0.4999999   0.3830103   0.0000225), wk =   0.0277778
        k(   70) = (  -0.4999999   0.4773456   0.0000180), wk =   0.0277778
        k(   71) = (  -0.4999999   0.5716810   0.0000134), wk =   0.0277778
        k(   72) = (  -0.4999999   0.6660163   0.0000089), wk =   0.0277778
        k(   73) = (  -0.4999998   0.7603516   0.0000044), wk =   0.0277778
        k(   74) = (  -0.5000001  -0.2773368   0.0000541), wk =   0.0138889

                       cryst. coord.
        k(    1) = (   0.0000000   0.0000000   0.0000000), wk =   0.0138889
        k(    2) = (   0.0000000   0.0833333  -0.0000000), wk =   0.0277778
        k(    3) = (   0.0000000   0.1666667  -0.0000000), wk =   0.0277778
        k(    4) = (   0.0000000   0.2500000  -0.0000000), wk =   0.0277778
        k(    5) = (   0.0000000   0.3333333  -0.0000000), wk =   0.0277778
        k(    6) = (   0.0000000   0.4166667  -0.0000000), wk =   0.0277778
        k(    7) = (   0.0000000  -0.5000000   0.0000000), wk =   0.0138889
        k(    8) = (   0.0833333  -0.0000000   0.0000000), wk =   0.0277778
        k(    9) = (   0.0833333   0.0833333   0.0000000), wk =   0.0277778
        k(   10) = (   0.0833333   0.1666667  -0.0000000), wk =   0.0277778
        k(   11) = (   0.0833333   0.2500000   0.0000000), wk =   0.0277778
        k(   12) = (   0.0833333   0.3333333  -0.0000000), wk =   0.0277778
        k(   13) = (   0.0833333   0.4166667  -0.0000000), wk =   0.0277778
        k(   14) = (   0.0833333  -0.5000000   0.0000000), wk =   0.0277778
        k(   15) = (   0.0833333  -0.4166667   0.0000000), wk =   0.0277778
        k(   16) = (   0.0833333  -0.3333333   0.0000000), wk =   0.0277778
        k(   17) = (   0.0833333  -0.2500000   0.0000000), wk =   0.0277778
        k(   18) = (   0.0833333  -0.1666667  -0.0000000), wk =   0.0277778
        k(   19) = (   0.0833333  -0.0833333   0.0000000), wk =   0.0277778
        k(   20) = (   0.1666667  -0.0000000   0.0000000), wk =   0.0277778
        k(   21) = (   0.1666667   0.0833333  -0.0000000), wk =   0.0277778
        k(   22) = (   0.1666667   0.1666667   0.0000000), wk =   0.0277778
        k(   23) = (   0.1666667   0.2500000  -0.0000000), wk =   0.0277778
        k(   24) = (   0.1666667   0.3333333  -0.0000000), wk =   0.0277778
        k(   25) = (   0.1666667   0.4166667  -0.0000000), wk =   0.0277778
        k(   26) = (   0.1666667  -0.5000000   0.0000000), wk =   0.0277778
        k(   27) = (   0.1666667  -0.4166667  -0.0000000), wk =   0.0277778
        k(   28) = (   0.1666667  -0.3333333   0.0000000), wk =   0.0277778
        k(   29) = (   0.1666667  -0.2500000   0.0000000), wk =   0.0277778
        k(   30) = (   0.1666667  -0.1666667  -0.0000000), wk =   0.0277778
        k(   31) = (   0.1666667  -0.0833333  -0.0000000), wk =   0.0277778
        k(   32) = (   0.2500000  -0.0000000   0.0000000), wk =   0.0277778
        k(   33) = (   0.2500000   0.0833333   0.0000000), wk =   0.0277778
        k(   34) = (   0.2500000   0.1666667   0.0000000), wk =   0.0277778
        k(   35) = (   0.2500000   0.2500000  -0.0000000), wk =   0.0277778
        k(   36) = (   0.2500000   0.3333333  -0.0000000), wk =   0.0277778
        k(   37) = (   0.2500000   0.4166667   0.0000000), wk =   0.0277778
        k(   38) = (   0.2500000  -0.5000000   0.0000000), wk =   0.0277778
        k(   39) = (   0.2500000  -0.4166667  -0.0000000), wk =   0.0277778
        k(   40) = (   0.2500000  -0.3333333  -0.0000000), wk =   0.0277778
        k(   41) = (   0.2500000  -0.2500000  -0.0000000), wk =   0.0277778
        k(   42) = (   0.2500000  -0.1666667  -0.0000000), wk =   0.0277778
        k(   43) = (   0.2500000  -0.0833333   0.0000000), wk =   0.0277778
        k(   44) = (   0.3333333  -0.0000000   0.0000000), wk =   0.0277778
        k(   45) = (   0.3333333   0.0833333  -0.0000000), wk =   0.0277778
        k(   46) = (   0.3333333   0.1666667  -0.0000000), wk =   0.0277778
        k(   47) = (   0.3333333   0.2500000   0.0000000), wk =   0.0277778
        k(   48) = (   0.3333333   0.3333333   0.0000000), wk =   0.0277778
        k(   49) = (   0.3333333   0.4166667  -0.0000000), wk =   0.0277778
        k(   50) = (   0.3333333  -0.5000000   0.0000000), wk =   0.0277778
        k(   51) = (   0.3333333  -0.4166667  -0.0000000), wk =   0.0277778
        k(   52) = (   0.3333333  -0.3333333  -0.0000000), wk =   0.0277778
        k(   53) = (   0.3333333  -0.2500000   0.0000000), wk =   0.0277778
        k(   54) = (   0.3333333  -0.1666667  -0.0000000), wk =   0.0277778
        k(   55) = (   0.3333333  -0.0833333  -0.0000000), wk =   0.0277778
        k(   56) = (   0.4166667  -0.0000000  -0.0000000), wk =   0.0277778
        k(   57) = (   0.4166667   0.0833333   0.0000000), wk =   0.0277778
        k(   58) = (   0.4166667   0.1666667  -0.0000000), wk =   0.0277778
        k(   59) = (   0.4166667   0.2500000   0.0000000), wk =   0.0277778
        k(   60) = (   0.4166667   0.3333333   0.0000000), wk =   0.0277778
        k(   61) = (   0.4166667   0.4166667  -0.0000000), wk =   0.0277778
        k(   62) = (   0.4166667  -0.5000000  -0.0000000), wk =   0.0277778
        k(   63) = (   0.4166667  -0.4166667  -0.0000000), wk =   0.0277778
        k(   64) = (   0.4166667  -0.3333333   0.0000000), wk =   0.0277778
        k(   65) = (   0.4166667  -0.2500000  -0.0000000), wk =   0.0277778
        k(   66) = (   0.4166667  -0.1666667  -0.0000000), wk =   0.0277778
        k(   67) = (   0.4166667  -0.0833333   0.0000000), wk =   0.0277778
        k(   68) = (  -0.5000000   0.0000000   0.0000000), wk =   0.0138889
        k(   69) = (  -0.5000000   0.0833333   0.0000000), wk =   0.0277778
        k(   70) = (  -0.5000000   0.1666667   0.0000000), wk =   0.0277778
        k(   71) = (  -0.5000000   0.2500000   0.0000000), wk =   0.0277778
        k(   72) = (  -0.5000000   0.3333333   0.0000000), wk =   0.0277778
        k(   73) = (  -0.5000000   0.4166667   0.0000000), wk =   0.0277778
        k(   74) = (  -0.5000000  -0.5000000   0.0000000), wk =   0.0138889

     Dense  grid:    85731 G-vectors     FFT dimensions: (  30,  30, 240)

     Smooth grid:    30205 G-vectors     FFT dimensions: (  24,  24, 162)

     Dynamical RAM for                 wfc:       1.10 MB

     Dynamical RAM for     wfc (w. buffer):      82.23 MB

     Dynamical RAM for           str. fact:       2.62 MB

     Dynamical RAM for           local pot:       0.00 MB

     Dynamical RAM for          nlocal pot:       2.77 MB

     Dynamical RAM for                qrad:       0.65 MB

     Dynamical RAM for          rho,v,vnew:       8.87 MB

     Dynamical RAM for               rhoin:       2.96 MB

     Dynamical RAM for            rho*nmix:      20.93 MB

     Dynamical RAM for           G-vectors:       5.14 MB

     Dynamical RAM for          h,s,v(r/c):       0.26 MB

     Dynamical RAM for          <psi|beta>:       0.01 MB

     Dynamical RAM for                 psi:       4.39 MB

     Dynamical RAM for                hpsi:       4.39 MB

     Dynamical RAM for                spsi:       4.39 MB

     Dynamical RAM for      wfcinit/wfcrot:       2.78 MB

     Dynamical RAM for           addusdens:      61.48 MB

     Dynamical RAM for          addusforce:      77.84 MB

     Dynamical RAM for         addusstress:      65.41 MB

     Estimated static dynamical RAM per process >     138.33 MB

     Estimated max dynamical RAM per process >     216.17 MB

     Check: negative core charge=   -0.000006

     Initial potential from superposition of free atoms

     starting charge   29.99983, renormalised to   30.00000

     negative rho (up, down):  5.134E-04 0.000E+00
     Starting wfcs are   24 randomized atomic wfcs
     Checking if some PAW data can be deallocated... 

     total cpu time spent up to now is        9.7 secs

     Self-consistent Calculation

     iteration #  1     ecut=    45.00 Ry     beta= 0.70
     Davidson diagonalization with overlap
     ethr =  1.00E-02,  avg # of iterations =  2.8

     negative rho (up, down):  6.059E-04 0.000E+00

     total cpu time spent up to now is       17.6 secs

     total energy              =    -189.87969804 Ry
     Harris-Foulkes estimate   =    -190.06420716 Ry
     estimated scf accuracy    <       0.33867286 Ry

     iteration #  2     ecut=    45.00 Ry     beta= 0.70
     Davidson diagonalization with overlap
     ethr =  1.13E-03,  avg # of iterations =  2.3

     negative rho (up, down):  6.316E-04 0.000E+00

     total cpu time spent up to now is       24.7 secs

     total energy              =    -189.91117712 Ry
     Harris-Foulkes estimate   =    -189.96094831 Ry
     estimated scf accuracy    <       0.07889637 Ry

     iteration #  3     ecut=    45.00 Ry     beta= 0.70
     Davidson diagonalization with overlap
     ethr =  2.63E-04,  avg # of iterations =  5.4

     negative rho (up, down):  6.454E-04 0.000E+00

     total cpu time spent up to now is       33.7 secs

     total energy              =    -189.92899042 Ry
     Harris-Foulkes estimate   =    -189.94716936 Ry
     estimated scf accuracy    <       0.03504733 Ry

     iteration #  4     ecut=    45.00 Ry     beta= 0.70
     Davidson diagonalization with overlap
     ethr =  1.17E-04,  avg # of iterations =  4.6

     negative rho (up, down):  6.461E-04 0.000E+00

     total cpu time spent up to now is       41.7 secs

     total energy              =    -189.93651593 Ry
     Harris-Foulkes estimate   =    -189.94074042 Ry
     estimated scf accuracy    <       0.00981934 Ry

     iteration #  5     ecut=    45.00 Ry     beta= 0.70
     Davidson diagonalization with overlap
     ethr =  3.27E-05,  avg # of iterations =  4.0

     negative rho (up, down):  6.496E-04 0.000E+00

     total cpu time spent up to now is       48.7 secs

     total energy              =    -189.93841309 Ry
     Harris-Foulkes estimate   =    -189.93843304 Ry
     estimated scf accuracy    <       0.00006259 Ry

     iteration #  6     ecut=    45.00 Ry     beta= 0.70
     Davidson diagonalization with overlap
     ethr =  2.09E-07,  avg # of iterations =  4.3

     negative rho (up, down):  6.510E-04 0.000E+00

     total cpu time spent up to now is       57.7 secs

     total energy              =    -189.93846042 Ry
     Harris-Foulkes estimate   =    -189.93846912 Ry
     estimated scf accuracy    <       0.00002044 Ry

     iteration #  7     ecut=    45.00 Ry     beta= 0.70
     Davidson diagonalization with overlap
     ethr =  6.81E-08,  avg # of iterations =  2.0

     negative rho (up, down):  6.516E-04 0.000E+00

     total cpu time spent up to now is       64.1 secs

     total energy              =    -189.93846161 Ry
     Harris-Foulkes estimate   =    -189.93846255 Ry
     estimated scf accuracy    <       0.00000200 Ry

     iteration #  8     ecut=    45.00 Ry     beta= 0.70
     Davidson diagonalization with overlap
     ethr =  6.68E-09,  avg # of iterations =  3.0

     negative rho (up, down):  6.517E-04 0.000E+00

     total cpu time spent up to now is       71.8 secs

     End of self-consistent calculation

          k = 0.0000 0.0000 0.0000 (  3737 PWs)   bands (ev):

   -27.2345 -27.1773 -21.6963 -18.2831 -12.1613  -9.3247  -6.1341  -5.5577
    -5.4368  -5.2807  -5.1670  -3.0507  -2.9302  -1.8336  -1.7333   2.0296
     4.8385   4.8957   5.2651

     occupation numbers 
     1.0000   1.0000   1.0000   1.0000   1.0000   1.0000   1.0000   1.0000
     1.0000   1.0000   1.0000   1.0000   1.0000   1.0000   1.0000   0.0000
     0.0000   0.0000   0.0000

          k = 0.0000 0.0943-0.0000 (  3715 PWs)   bands (ev):

   -27.1662 -27.1126 -21.5490 -18.1576 -12.0617  -9.2923  -6.4769  -5.9135
    -5.6413  -5.5983  -5.2784  -3.5062  -3.1082  -2.3786  -1.9181   2.3948
     4.6950   5.4406   5.6288

     occupation numbers 
     1.0000   1.0000   1.0000   1.0000   1.0000   1.0000   1.0000   1.0000
     1.0000   1.0000   1.0000   1.0000   1.0000   1.0000   1.0000   0.0000
     0.0000   0.0000   0.0000

          k = 0.0000 0.1887-0.0000 (  3741 PWs)   bands (ev):

   -26.9755 -26.9315 -21.1078 -17.7832 -11.7807  -9.2350  -7.7492  -7.0859
    -6.1382  -6.0775  -5.5798  -4.2393  -3.5240  -3.4530  -2.3435   2.9916
     4.4861   6.1919   6.3854

     occupation numbers 
     1.0000   1.0000   1.0000   1.0000   1.0000   1.0000   1.0000   1.0000
     1.0000   1.0000   1.0000   1.0000   1.0000   1.0000   1.0000   0.0000
     0.0000   0.0000   0.0000

          k = 0.0000 0.2830-0.0000 (  3753 PWs)   bands (ev):

   -26.7039 -26.6729 -20.3754 -17.1664 -11.4139  -9.8660  -9.1724  -8.3954
    -6.7713  -6.7017  -5.9974  -4.9499  -4.5019  -3.7727  -2.7929   3.2871
     4.4164   6.5052   7.2023

     occupation numbers 
     1.0000   1.0000   1.0000   1.0000   1.0000   1.0000   1.0000   1.0000
     1.0000   1.0000   1.0000   1.0000   1.0000   1.0000   1.0000   0.0000
     0.0000   0.0000   0.0000

          k = 0.0000 0.3773-0.0000 (  3770 PWs)   bands (ev):

   -26.4181 -26.3999 -19.3621 -16.3249 -12.2151 -10.8445 -10.2481  -8.8013
    -7.3403  -7.3008  -6.4082  -5.8776  -4.8941  -4.0140  -3.1416   3.2720
     4.5349   6.1645   7.7586

     occupation numbers 
     1.0000   1.0000   1.0000   1.0000   1.0000   1.0000   1.0000   1.0000
     1.0000   1.0000   1.0000   1.0000   1.0000   1.0000   1.0000   0.0000
     0.0000   0.0000   0.0000

          k = 0.0000 0.4717-0.0000 (  3785 PWs)   bands (ev):

   -26.1985 -26.1901 -18.1156 -15.3725 -14.0322 -12.1681 -10.0667  -8.9901
    -7.7195  -7.6383  -6.7001  -6.5373  -5.1255  -4.1652  -3.3550   3.3336
     4.3431   5.7064   7.9334

     occupation numbers 
     1.0000   1.0000   1.0000   1.0000   1.0000   1.0000   1.0000   1.0000
     1.0000   1.0000   1.0000   1.0000   1.0000   1.0000   1.0000   0.0000
     0.0000   0.0000   0.0000

          k =-0.0000-0.5660 0.0000 (  3786 PWs)   bands (ev):

   -26.1151 -26.1117 -17.1458 -15.5920 -14.1220 -13.2615  -9.8128  -9.1598
    -7.8518  -7.7194  -6.8045  -6.7724  -5.2160  -4.2170  -3.4264   3.5096
     3.9862   5.6351   8.2160

     occupation numbers 
     1.0000   1.0000   1.0000   1.0000   1.0000   1.0000   1.0000   1.0000
     1.0000   1.0000   1.0000   1.0000   1.0000   1.0000   1.0000   0.0000
     0.0000   0.0000   0.0000

          k = 0.0833-0.0481-0.0000 (  3745 PWs)   bands (ev):

   -27.1618 -27.1083 -21.5424 -18.1517 -12.0559  -9.2891  -6.4349  -5.8231
    -5.7724  -5.4765  -5.3935  -3.3950  -3.2304  -2.2800  -2.0283   2.3679
     4.6821   5.3167   5.5590

     occupation numbers 
     1.0000   1.0000   1.0000   1.0000   1.0000   1.0000   1.0000   1.0000
     1.0000   1.0000   1.0000   1.0000   1.0000   1.0000   1.0000   0.0000
     0.0000   0.0000   0.0000

          k = 0.0833 0.0462-0.0000 (  3739 PWs)   bands (ev):

   -27.1639 -27.1104 -21.5457 -18.1545 -12.0587  -9.2906  -6.4510  -5.8692
    -5.7164  -5.5282  -5.3382  -3.4472  -3.1742  -2.3228  -1.9799   2.3789
     4.6891   5.3582   5.5748

     occupation numbers 
     1.0000   1.0000   1.0000   1.0000   1.0000   1.0000   1.0000   1.0000
     1.0000   1.0000   1.0000   1.0000   1.0000   1.0000   1.0000   0.0000
     0.0000   0.0000   0.0000

          k = 0.0833 0.1406-0.0000 (  3730 PWs)   bands (ev):

   -27.0363 -26.9892 -21.2545 -17.9073 -11.8703  -9.2428  -7.1626  -6.5907
    -6.2963  -5.8982  -5.5304  -3.8903  -3.6746  -2.9083  -2.4463   2.9186
     4.7446   5.8627   6.0086

     occupation numbers 
     1.0000   1.0000   1.0000   1.0000   1.0000   1.0000   1.0000   1.0000
     1.0000   1.0000   1.0000   1.0000   1.0000   1.0000   1.0000   0.0000
     0.0000   0.0000   0.0000

          k = 0.0833 0.2349-0.0000 (  3762 PWs)   bands (ev):

   -26.8060 -26.7702 -20.6705 -17.4139 -11.5337  -9.2826  -8.6429  -7.8070
    -7.0136  -6.5457  -5.8757  -4.6033  -4.2065  -3.6497  -2.9634   3.5541
     4.6853   6.5634   6.8849

     occupation numbers 
     1.0000   1.0000   1.0000   1.0000   1.0000   1.0000   1.0000   1.0000
     1.0000   1.0000   1.0000   1.0000   1.0000   1.0000   1.0000   0.0000
     0.0000   0.0000   0.0000

          k = 0.0833 0.3292-0.0000 (  3784 PWs)   bands (ev):

   -26.5266 -26.5034 -19.7990 -16.6843 -11.4102 -10.5348  -9.6711  -8.6705
    -7.6837  -7.1583  -6.4142  -5.4467  -4.7138  -4.0506  -3.3356   3.8514
     4.6992   6.8899   7.6753

     occupation numbers 
     1.0000   1.0000   1.0000   1.0000   1.0000   1.0000   1.0000   1.0000
     1.0000   1.0000   1.0000   1.0000   1.0000   1.0000   1.0000   0.0000
     0.0000   0.0000   0.0000

          k = 0.0833 0.4236-0.0000 (  3780 PWs)   bands (ev):

   -26.2712 -26.2590 -18.6612 -15.7542 -13.0617 -11.3586 -10.1900  -8.8980
    -8.1416  -7.5598  -6.9398  -6.1772  -5.0763  -4.2331  -3.5883   3.8682
     4.7903   6.4152   8.0886

     occupation numbers 
     1.0000   1.0000   1.0000   1.0000   1.0000   1.0000   1.0000   1.0000
     1.0000   1.0000   1.0000   1.0000   1.0000   1.0000   1.0000   0.0000
     0.0000   0.0000   0.0000

          k = 0.0833-0.6141 0.0000 (  3771 PWs)   bands (ev):

   -26.1160 -26.1113 -17.3904 -15.2078 -14.2444 -12.7772  -9.8447  -9.1124
    -8.3789  -7.7081  -7.2367  -6.5950  -5.2726  -4.3202  -3.7154   4.0191
     4.4670   6.1885   8.2478

     occupation numbers 
     1.0000   1.0000   1.0000   1.0000   1.0000   1.0000   1.0000   1.0000
     1.0000   1.0000   1.0000   1.0000   1.0000   1.0000   1.0000   0.0000
     0.0000   0.0000   0.0000

          k = 0.0833-0.5198 0.0000 (  3785 PWs)   bands (ev):

   -26.1133 -26.1087 -17.3652 -15.2228 -14.2354 -12.8107  -9.8342  -9.1272
    -8.3558  -7.7280  -7.2099  -6.6010  -5.2743  -4.3176  -3.7076   4.0164
     4.4503   6.1776   8.2313

     occupation numbers 
     1.0000   1.0000   1.0000   1.0000   1.0000   1.0000   1.0000   1.0000
     1.0000   1.0000   1.0000   1.0000   1.0000   1.0000   1.0000   0.0000
     0.0000   0.0000   0.0000

          k = 0.0833-0.4255 0.0000 (  3785 PWs)   bands (ev):

   -26.2641 -26.2521 -18.6337 -15.7311 -13.1067 -11.3998 -10.1832  -8.9103
    -8.0903  -7.5964  -6.8789  -6.1965  -5.0826  -4.2241  -3.5668   3.8440
     4.7661   6.3817   8.0493

     occupation numbers 
     1.0000   1.0000   1.0000   1.0000   1.0000   1.0000   1.0000   1.0000
     1.0000   1.0000   1.0000   1.0000   1.0000   1.0000   1.0000   0.0000
     0.0000   0.0000   0.0000

          k = 0.0833-0.3311 0.0000 (  3780 PWs)   bands (ev):

   -26.5174 -26.4945 -19.7769 -16.6649 -11.4254 -10.5616  -9.7129  -8.6771
    -7.6373  -7.1716  -6.3450  -5.4735  -4.7330  -4.0329  -3.3046   3.8152
     4.6634   6.8617   7.6099

     occupation numbers 
     1.0000   1.0000   1.0000   1.0000   1.0000   1.0000   1.0000   1.0000
     1.0000   1.0000   1.0000   1.0000   1.0000   1.0000   1.0000   0.0000
     0.0000   0.0000   0.0000

          k = 0.0833-0.2368 0.0000 (  3760 PWs)   bands (ev):

   -26.7974 -26.7618 -20.6545 -17.3998 -11.5218  -9.2886  -8.6925  -7.8256
    -6.9893  -6.5416  -5.8148  -4.6264  -4.2241  -3.6473  -2.9265   3.5200
     4.6265   6.5346   6.9009

     occupation numbers 
     1.0000   1.0000   1.0000   1.0000   1.0000   1.0000   1.0000   1.0000
     1.0000   1.0000   1.0000   1.0000   1.0000   1.0000   1.0000   0.0000
     0.0000   0.0000   0.0000

          k = 0.0833-0.1424 0.0000 (  3739 PWs)   bands (ev):

   -27.0303 -26.9834 -21.2449 -17.8987 -11.8622  -9.2395  -7.1686  -6.5790
    -6.3058  -5.9189  -5.4953  -3.9052  -3.6604  -2.9265  -2.4354   2.8861
     4.6936   5.7862   6.0230

     occupation numbers 
     1.0000   1.0000   1.0000   1.0000   1.0000   1.0000   1.0000   1.0000
     1.0000   1.0000   1.0000   1.0000   1.0000   1.0000   1.0000   0.0000
     0.0000   0.0000   0.0000

          k = 0.1667-0.0962-0.0000 (  3757 PWs)   bands (ev):

   -26.9585 -26.9149 -21.0813 -17.7592 -11.7567  -9.2225  -7.5506  -7.0015
    -6.3533  -5.9835  -5.7460  -4.1453  -3.6073  -3.4312  -2.5034   2.8997
     4.3891   6.0676   6.2213

     occupation numbers 
     1.0000   1.0000   1.0000   1.0000   1.0000   1.0000   1.0000   1.0000
     1.0000   1.0000   1.0000   1.0000   1.0000   1.0000   1.0000   0.0000
     0.0000   0.0000   0.0000

          k = 0.1667-0.0019-0.0000 (  3732 PWs)   bands (ev):

   -27.0238 -26.9770 -21.2348 -17.8896 -11.8533  -9.2353  -7.1472  -6.5445
    -6.3367  -5.9398  -5.4823  -3.8838  -3.6805  -2.9270  -2.4507   2.8445
     4.6216   5.7288   6.0366

     occupation numbers 
     1.0000   1.0000   1.0000   1.0000   1.0000   1.0000   1.0000   1.0000
     1.0000   1.0000   1.0000   1.0000   1.0000   1.0000   1.0000   0.0000
     0.0000   0.0000   0.0000

          k = 0.1667 0.0924-0.0000 (  3746 PWs)   bands (ev):

   -26.9666 -26.9228 -21.0942 -17.7708 -11.7682  -9.2281  -7.6411  -7.0423
    -6.2511  -6.0292  -5.6667  -4.1890  -3.5387  -3.4709  -2.4297   2.9446
     4.4384   6.1775   6.2077

     occupation numbers 
     1.0000   1.0000   1.0000   1.0000   1.0000   1.0000   1.0000   1.0000
     1.0000   1.0000   1.0000   1.0000   1.0000   1.0000   1.0000   0.0000
     0.0000   0.0000   0.0000

          k = 0.1667 0.1868-0.0000 (  3749 PWs)   bands (ev):

   -26.7995 -26.7638 -20.6602 -17.4043 -11.5231  -9.2687  -8.5303  -7.7785
    -7.1092  -6.5641  -5.9314  -4.5609  -4.2192  -3.6535  -3.0505   3.5131
     4.6829   6.4639   6.8687

     occupation numbers 
     1.0000   1.0000   1.0000   1.0000   1.0000   1.0000   1.0000   1.0000
     1.0000   1.0000   1.0000   1.0000   1.0000   1.0000   1.0000   0.0000
     0.0000   0.0000   0.0000

          k = 0.1667 0.2811-0.0000 (  3793 PWs)   bands (ev):

   -26.5605 -26.5355 -19.9359 -16.7960 -11.2483  -9.7073  -9.6356  -8.4643
    -8.0921  -7.5643  -6.3366  -5.3194  -4.4850  -3.9927  -3.8281   4.4120
     4.8775   7.0099   7.9285

     occupation numbers 
     1.0000   1.0000   1.0000   1.0000   1.0000   1.0000   1.0000   1.0000
     1.0000   1.0000   1.0000   1.0000   1.0000   1.0000   1.0000   0.0000
     0.0000   0.0000   0.0000

          k = 0.1667 0.3755-0.0000 (  3809 PWs)   bands (ev):

   -26.3093 -26.2947 -18.9328 -15.9626 -11.9611 -10.7976 -10.0654  -9.0818
    -8.7617  -8.0999  -6.9569  -5.9271  -4.9414  -4.3631  -4.1313   4.7050
     5.2369   7.4248   8.1387

     occupation numbers 
     1.0000   1.0000   1.0000   1.0000   1.0000   1.0000   1.0000   1.0000
     1.0000   1.0000   1.0000   1.0000   1.0000   1.0000   1.0000   0.0000
     0.0000   0.0000   0.0000

          k = 0.1667-0.6622 0.0000 (  3805 PWs)   bands (ev):

   -26.1156 -26.1088 -17.7014 -15.0094 -13.6291 -11.9543  -9.9597  -9.5665
    -9.0213  -8.1495  -7.5626  -6.3103  -5.3838  -4.4637  -4.3276   4.5105
     5.7479   7.2655   7.9897

     occupation numbers 
     1.0000   1.0000   1.0000   1.0000   1.0000   1.0000   1.0000   1.0000
     1.0000   1.0000   1.0000   1.0000   1.0000   1.0000   1.0000   0.0000
     0.0000   0.0000   0.0000

          k = 0.1667-0.5679 0.0000 (  3800 PWs)   bands (ev):

   -26.0389 -26.0361 -16.7243 -15.1699 -13.7076 -13.0345 -10.0658  -9.3298
    -9.2184  -8.1530  -7.8087  -6.4611  -5.5410  -4.4829  -4.4016   4.4285
     5.8598   7.2568   7.9175

     occupation numbers 
     1.0000   1.0000   1.0000   1.0000   1.0000   1.0000   1.0000   1.0000
     1.0000   1.0000   1.0000   1.0000   1.0000   1.0000   1.0000   0.0000
     0.0000   0.0000   0.0000

          k = 0.1667-0.4736 0.0000 (  3793 PWs)   bands (ev):

   -26.1057 -26.0992 -17.6432 -14.9707 -13.6960 -12.0373  -9.9201  -9.5589
    -9.0054  -8.1752  -7.5086  -6.3446  -5.3884  -4.4794  -4.2879   4.4933
     5.7552   7.2089   8.0015

     occupation numbers 
     1.0000   1.0000   1.0000   1.0000   1.0000   1.0000   1.0000   1.0000
     1.0000   1.0000   1.0000   1.0000   1.0000   1.0000   1.0000   0.0000
     0.0000   0.0000   0.0000

          k = 0.1667-0.3792 0.0000 (  3803 PWs)   bands (ev):

   -26.2929 -26.2787 -18.8824 -15.9182 -12.0416 -10.8488 -10.0818  -9.0620
    -8.6999  -8.1190  -6.8975  -5.9720  -4.9706  -4.3614  -4.0885   4.6755
     5.2174   7.3945   8.0653

     occupation numbers 
     1.0000   1.0000   1.0000   1.0000   1.0000   1.0000   1.0000   1.0000
     1.0000   1.0000   1.0000   1.0000   1.0000   1.0000   1.0000   0.0000
     0.0000   0.0000   0.0000

          k = 0.1667-0.2849 0.0000 (  3784 PWs)   bands (ev):

   -26.5427 -26.5181 -19.8975 -16.7619 -11.2284  -9.7782  -9.6544  -8.4292
    -8.1031  -7.5618  -6.2827  -5.3511  -4.5217  -4.0027  -3.7946   4.3567
     4.8261   6.9087   7.8816

     occupation numbers 
     1.0000   1.0000   1.0000   1.0000   1.0000   1.0000   1.0000   1.0000
     1.0000   1.0000   1.0000   1.0000   1.0000   1.0000   1.0000   0.0000
     0.0000   0.0000   0.0000

          k = 0.1667-0.1906-0.0000 (  3761 PWs)   bands (ev):

   -26.7849 -26.7495 -20.6345 -17.3813 -11.5015  -9.2619  -8.4884  -7.7624
    -7.1672  -6.5898  -5.9136  -4.5463  -4.2492  -3.6560  -3.0897   3.4275
     4.6186   6.3479   6.8025

     occupation numbers 
     1.0000   1.0000   1.0000   1.0000   1.0000   1.0000   1.0000   1.0000
     1.0000   1.0000   1.0000   1.0000   1.0000   1.0000   1.0000   0.0000
     0.0000   0.0000   0.0000

          k = 0.2500-0.1443-0.0000 (  3778 PWs)   bands (ev):

   -26.6688 -26.6384 -20.3153 -17.1111 -11.3508  -9.7039  -9.0377  -8.3060
    -7.0695  -6.6529  -6.2303  -4.8409  -4.4809  -3.9474  -2.9900   2.9975
     4.3876   6.0838   7.1869

     occupation numbers 
     1.0000   1.0000   1.0000   1.0000   1.0000   1.0000   1.0000   1.0000
     1.0000   1.0000   1.0000   1.0000   1.0000   1.0000   1.0000   0.0000
     0.0000   0.0000   0.0000

          k = 0.2500-0.0500-0.0000 (  3744 PWs)   bands (ev):

   -26.7755 -26.7402 -20.6178 -17.3662 -11.4882  -9.2647  -8.5335  -7.7691
    -7.1450  -6.5888  -5.8610  -4.5653  -4.2621  -3.6662  -3.0535   3.3807
     4.5468   6.3574   6.7020

     occupation numbers 
     1.0000   1.0000   1.0000   1.0000   1.0000   1.0000   1.0000   1.0000
     1.0000   1.0000   1.0000   1.0000   1.0000   1.0000   1.0000   0.0000
     0.0000   0.0000   0.0000

          k = 0.2500 0.0443-0.0000 (  3743 PWs)   bands (ev):

   -26.7815 -26.7461 -20.6276 -17.3751 -11.4978  -9.2771  -8.6276  -7.8037
    -7.0588  -6.5622  -5.8163  -4.6038  -4.2484  -3.6622  -2.9768   3.4330
     4.5509   6.4447   6.8162

     occupation numbers 
     1.0000   1.0000   1.0000   1.0000   1.0000   1.0000   1.0000   1.0000
     1.0000   1.0000   1.0000   1.0000   1.0000   1.0000   1.0000   0.0000
     0.0000   0.0000   0.0000

          k = 0.2500 0.1387-0.0000 (  3765 PWs)   bands (ev):

   -26.6856 -26.6548 -20.3447 -17.1378 -11.3805  -9.7787  -9.1056  -8.3500
    -6.9243  -6.6769  -6.1156  -4.8943  -4.4901  -3.8642  -2.8955   3.1468
     4.4063   6.2869   7.1981

     occupation numbers 
     1.0000   1.0000   1.0000   1.0000   1.0000   1.0000   1.0000   1.0000
     1.0000   1.0000   1.0000   1.0000   1.0000   1.0000   1.0000   0.0000
     0.0000   0.0000   0.0000

          k = 0.2500 0.2330-0.0000 (  3785 PWs)   bands (ev):

   -26.5105 -26.4875 -19.7710 -16.6573 -11.3419 -10.4466  -9.6103  -8.6350
    -7.8469  -7.1846  -6.5186  -5.4096  -4.6969  -4.1203  -3.4397   3.7069
     4.7645   6.6468   7.5890

     occupation numbers 
     1.0000   1.0000   1.0000   1.0000   1.0000   1.0000   1.0000   1.0000
     1.0000   1.0000   1.0000   1.0000   1.0000   1.0000   1.0000   0.0000
     0.0000   0.0000   0.0000

          k = 0.2500 0.3273-0.0000 (  3809 PWs)   bands (ev):

   -26.2998 -26.2852 -18.9144 -15.9434 -11.8730 -10.7590 -10.0667  -9.1292
    -8.7946  -8.1514  -6.9855  -5.9129  -4.9290  -4.3911  -4.1906   4.6534
     5.2747   7.3835   7.8709

     occupation numbers 
     1.0000   1.0000   1.0000   1.0000   1.0000   1.0000   1.0000   1.0000
     1.0000   1.0000   1.0000   1.0000   1.0000   1.0000   1.0000   0.0000
     0.0000   0.0000   0.0000

          k = 0.2500-0.7103 0.0000 (  3807 PWs)   bands (ev):

   -26.1090 -26.1015 -17.8030 -15.0314 -12.7574 -11.7937 -10.0046  -9.9540
    -9.5394  -8.4050  -7.5303  -6.1885  -5.2420  -4.9129  -4.4577   4.8215
     6.0551   7.0706   9.5191

     occupation numbers 
     1.0000   1.0000   1.0000   1.0000   1.0000   1.0000   1.0000   1.0000
     1.0000   1.0000   1.0000   1.0000   1.0000   1.0000   1.0000   0.0000
     0.0000   0.0000   0.0000

          k = 0.2500-0.6160 0.0000 (  3799 PWs)   bands (ev):

   -25.9923 -25.9892 -16.5822 -14.4049 -13.6356 -12.6513 -10.9775 -10.1876
    -9.1295  -8.4781  -8.0048  -6.1864  -5.6703  -5.1353  -4.5434   4.8201
     5.9967   7.7248   8.9846

     occupation numbers 
     1.0000   1.0000   1.0000   1.0000   1.0000   1.0000   1.0000   1.0000
     1.0000   1.0000   1.0000   1.0000   1.0000   1.0000   1.0000   0.0000
     0.0000   0.0000   0.0000

          k = 0.2500-0.5217 0.0000 (  3793 PWs)   bands (ev):

   -25.9851 -25.9822 -16.5060 -14.4512 -13.5754 -12.7647 -10.9642 -10.1699
    -9.1301  -8.4821  -7.9895  -6.2142  -5.6705  -5.1327  -4.5364   4.8117
     6.0118   7.7392   8.9316

     occupation numbers 
     1.0000   1.0000   1.0000   1.0000   1.0000   1.0000   1.0000   1.0000
     1.0000   1.0000   1.0000   1.0000   1.0000   1.0000   1.0000   0.0000
     0.0000   0.0000   0.0000

          k = 0.2500-0.4273 0.0000 (  3805 PWs)   bands (ev):

   -26.0899 -26.0826 -17.7181 -14.9534 -12.8514 -11.8685 -10.0028  -9.9048
    -9.5594  -8.4077  -7.5022  -6.2325  -5.2705  -4.9111  -4.4417   4.8019
     6.0929   7.0270   9.2394

     occupation numbers 
     1.0000   1.0000   1.0000   1.0000   1.0000   1.0000   1.0000   1.0000
     1.0000   1.0000   1.0000   1.0000   1.0000   1.0000   1.0000   0.0000
     0.0000   0.0000   0.0000

          k = 0.2500-0.3330-0.0000 (  3799 PWs)   bands (ev):

   -26.2747 -26.2605 -18.8465 -15.8811 -11.8709 -10.7829 -10.0822  -9.1356
    -8.7787  -8.2148  -6.9557  -5.9455  -4.9467  -4.4200  -4.1982   4.5428
     5.3029   7.3035   7.5432

     occupation numbers 
     1.0000   1.0000   1.0000   1.0000   1.0000   1.0000   1.0000   1.0000
     1.0000   1.0000   1.0000   1.0000   1.0000   1.0000   1.0000   0.0000
     0.0000   0.0000   0.0000

          k = 0.2500-0.2387-0.0000 (  3795 PWs)   bands (ev):

   -26.4867 -26.4641 -19.7222 -16.6130 -11.2923 -10.3911  -9.6013  -8.6040
    -7.9457  -7.2448  -6.5361  -5.4035  -4.7001  -4.1661  -3.5066   3.5077
     4.7819   6.3886   7.4284

     occupation numbers 
     1.0000   1.0000   1.0000   1.0000   1.0000   1.0000   1.0000   1.0000
     1.0000   1.0000   1.0000   1.0000   1.0000   1.0000   1.0000   0.0000
     0.0000   0.0000   0.0000

          k = 0.3333-0.1925-0.0000 (  3797 PWs)   bands (ev):

   -26.3636 -26.3459 -19.2524 -16.2193 -12.0249 -10.6960 -10.1769  -8.7332
    -7.7019  -7.2892  -6.7007  -5.8196  -4.8723  -4.2065  -3.3611   2.8196
     4.5592   5.7779   7.4042

     occupation numbers 
     1.0000   1.0000   1.0000   1.0000   1.0000   1.0000   1.0000   1.0000
     1.0000   1.0000   1.0000   1.0000   1.0000   1.0000   1.0000   0.0000
     0.0000   0.0000   0.0000

          k = 0.3333-0.0981-0.0000 (  3784 PWs)   bands (ev):

   -26.4766 -26.4542 -19.6990 -16.5921 -11.3013 -10.4229  -9.6464  -8.6106
    -7.8871  -7.2631  -6.4670  -5.4325  -4.7207  -4.1500  -3.4734   3.4561
     4.7396   6.3557   7.3756

     occupation numbers 
     1.0000   1.0000   1.0000   1.0000   1.0000   1.0000   1.0000   1.0000
     1.0000   1.0000   1.0000   1.0000   1.0000   1.0000   1.0000   0.0000
     0.0000   0.0000   0.0000

          k = 0.3333-0.0038-0.0000 (  3772 PWs)   bands (ev):

   -26.5232 -26.4989 -19.8573 -16.7251 -11.2028  -9.7785  -9.7157  -8.3989
    -8.1292  -7.5577  -6.2360  -5.3801  -4.5563  -4.0073  -3.7780   4.3155
     4.7380   6.8319   7.7639

     occupation numbers 
     1.0000   1.0000   1.0000   1.0000   1.0000   1.0000   1.0000   1.0000
     1.0000   1.0000   1.0000   1.0000   1.0000   1.0000   1.0000   0.0000
     0.0000   0.0000   0.0000

          k = 0.3333 0.0906-0.0000 (  3775 PWs)   bands (ev):

   -26.4913 -26.4687 -19.7257 -16.6171 -11.3660 -10.5054  -9.6975  -8.6480
    -7.7404  -7.2196  -6.3782  -5.4656  -4.7367  -4.0862  -3.3755   3.6191
     4.6866   6.5859   7.4661

     occupation numbers 
     1.0000   1.0000   1.0000   1.0000   1.0000   1.0000   1.0000   1.0000
     1.0000   1.0000   1.0000   1.0000   1.0000   1.0000   1.0000   0.0000
     0.0000   0.0000   0.0000

          k = 0.3333 0.1849-0.0000 (  3783 PWs)   bands (ev):

   -26.3896 -26.3716 -19.3059 -16.2699 -12.1186 -10.7678 -10.2133  -8.7676
    -7.5221  -7.2968  -6.5531  -5.8486  -4.8839  -4.1126  -3.2536   3.0509
     4.5647   5.9544   7.5697

     occupation numbers 
     1.0000   1.0000   1.0000   1.0000   1.0000   1.0000   1.0000   1.0000
     1.0000   1.0000   1.0000   1.0000   1.0000   1.0000   1.0000   0.0000
     0.0000   0.0000   0.0000

          k = 0.3333 0.2792-0.0000 (  3795 PWs)   bands (ev):

   -26.2450 -26.2329 -18.6055 -15.6932 -12.9667 -11.2686 -10.1671  -8.8722
    -8.3291  -7.5649  -7.0868  -6.1552  -5.0774  -4.3086  -3.6969   3.6859
     4.8484   6.1814   7.8787

     occupation numbers 
     1.0000   1.0000   1.0000   1.0000   1.0000   1.0000   1.0000   1.0000
     1.0000   1.0000   1.0000   1.0000   1.0000   1.0000   1.0000   0.0000
     0.0000   0.0000   0.0000

          k = 0.3333-0.7585 0.0000 (  3804 PWs)   bands (ev):

   -26.0958 -26.0891 -17.6504 -14.9281 -13.5823 -11.8900 -10.0253  -9.6170
    -9.0537  -8.1993  -7.6004  -6.2913  -5.4038  -4.4909  -4.4011   4.5352
     5.6478   7.2279   7.6926

     occupation numbers 
     1.0000   1.0000   1.0000   1.0000   1.0000   1.0000   1.0000   1.0000
     1.0000   1.0000   1.0000   1.0000   1.0000   1.0000   1.0000   0.0000
     0.0000   0.0000   0.0000

          k = 0.3333-0.6641 0.0000 (  3806 PWs)   bands (ev):

   -25.9821 -25.9790 -16.5380 -14.2551 -13.7464 -12.6321 -11.0013 -10.2652
    -9.1099  -8.4727  -8.0227  -6.1761  -5.6860  -5.1665  -4.5482   4.8634
     5.9402   7.7317   8.9065

     occupation numbers 
     1.0000   1.0000   1.0000   1.0000   1.0000   1.0000   1.0000   1.0000
     1.0000   1.0000   1.0000   1.0000   1.0000   1.0000   1.0000   0.0000
     0.0000   0.0000   0.0000

          k = 0.3333-0.5698 0.0000 (  3793 PWs)   bands (ev):

   -25.9342 -25.9326 -15.7739 -13.9968 -13.9574 -12.9020 -11.1793 -11.1563
    -8.6008  -8.5171  -8.5042  -5.7997  -5.7896  -5.7777  -4.5754   5.2938
     5.3695   8.5246   9.3408

     occupation numbers 
     1.0000   1.0000   1.0000   1.0000   1.0000   1.0000   1.0000   1.0000
     1.0000   1.0000   1.0000   1.0000   1.0000   1.0000   1.0000   0.0000
     0.0000   0.0000   0.0000

          k = 0.3333-0.4755-0.0000 (  3810 PWs)   bands (ev):

   -25.9656 -25.9627 -16.4163 -14.1587 -13.7965 -12.7281 -11.0098 -10.3206
    -9.0907  -8.4716  -8.0267  -6.1934  -5.6993  -5.1931  -4.5487   4.8948
     5.9014   7.7300   8.7148

     occupation numbers 
     1.0000   1.0000   1.0000   1.0000   1.0000   1.0000   1.0000   1.0000
     1.0000   1.0000   1.0000   1.0000   1.0000   1.0000   1.0000   0.0000
     0.0000   0.0000   0.0000

          k = 0.3333-0.3811-0.0000 (  3810 PWs)   bands (ev):

   -26.0680 -26.0615 -17.5433 -14.8096 -13.6049 -11.9188 -10.0585  -9.6372
    -9.0826  -8.2613  -7.5891  -6.3071  -5.4248  -4.5444  -4.4224   4.5129
     5.5431   7.0916   7.4531

     occupation numbers 
     1.0000   1.0000   1.0000   1.0000   1.0000   1.0000   1.0000   1.0000
     1.0000   1.0000   1.0000   1.0000   1.0000   1.0000   1.0000   0.0000
     0.0000   0.0000   0.0000

          k = 0.3333-0.2868-0.0000 (  3798 PWs)   bands (ev):

   -26.2139 -26.2021 -18.5249 -15.6142 -12.9163 -11.2257 -10.1358  -8.8710
    -8.4476  -7.6279  -7.1507  -6.1535  -5.0834  -4.3710  -3.7814   3.4438
     4.8865   5.9135   7.6582

     occupation numbers 
     1.0000   1.0000   1.0000   1.0000   1.0000   1.0000   1.0000   1.0000
     1.0000   1.0000   1.0000   1.0000   1.0000   1.0000   1.0000   0.0000
     0.0000   0.0000   0.0000

          k = 0.4167-0.2406-0.0000 (  3806 PWs)   bands (ev):

   -26.1287 -26.1207 -17.9303 -15.1409 -13.9648 -12.0438  -9.9852  -8.9197
    -8.1204  -7.6433  -7.0310  -6.5108  -5.1062  -4.3707  -3.5871   2.7796
     4.4215   5.2394   7.6546

     occupation numbers 
     1.0000   1.0000   1.0000   1.0000   1.0000   1.0000   1.0000   1.0000
     1.0000   1.0000   1.0000   1.0000   1.0000   1.0000   1.0000   0.0000
     0.0000   0.0000   0.0000

          k = 0.4167-0.1462-0.0000 (  3804 PWs)   bands (ev):

   -26.2061 -26.1944 -18.4956 -15.5880 -12.9651 -11.2714 -10.1276  -8.8886
    -8.3827  -7.6790  -7.0748  -6.1781  -5.0880  -4.3642  -3.7574   3.4081
     4.8567   5.8821   7.6414

     occupation numbers 
     1.0000   1.0000   1.0000   1.0000   1.0000   1.0000   1.0000   1.0000
     1.0000   1.0000   1.0000   1.0000   1.0000   1.0000   1.0000   0.0000
     0.0000   0.0000   0.0000

          k = 0.4167-0.0519-0.0000 (  3800 PWs)   bands (ev):

   -26.2568 -26.2429 -18.7932 -15.8322 -11.9498 -10.8359 -10.0905  -9.1157
    -8.7207  -8.2321  -6.9004  -5.9922  -4.9797  -4.4189  -4.1527   4.5146
     5.2584   7.3019   7.4591

     occupation numbers 
     1.0000   1.0000   1.0000   1.0000   1.0000   1.0000   1.0000   1.0000
     1.0000   1.0000   1.0000   1.0000   1.0000   1.0000   1.0000   0.0000
     0.0000   0.0000   0.0000

          k = 0.4167 0.0424-0.0000 (  3805 PWs)   bands (ev):

   -26.2655 -26.2515 -18.8107 -15.8499 -12.0330 -10.8635 -10.0916  -9.0854
    -8.6783  -8.1871  -6.8710  -6.0046  -4.9909  -4.3892  -4.1015   4.6009
     5.2064   7.3436   7.7240

     occupation numbers 
     1.0000   1.0000   1.0000   1.0000   1.0000   1.0000   1.0000   1.0000
     1.0000   1.0000   1.0000   1.0000   1.0000   1.0000   1.0000   0.0000
     0.0000   0.0000   0.0000

          k = 0.4167 0.1368-0.0000 (  3794 PWs)   bands (ev):

   -26.2300 -26.2182 -18.5486 -15.6438 -13.0606 -11.3553 -10.1521  -8.9016
    -8.2132  -7.6540  -6.9487  -6.1992  -5.0886  -4.2924  -3.6517   3.6259
     4.7946   6.1175   7.8231

     occupation numbers 
     1.0000   1.0000   1.0000   1.0000   1.0000   1.0000   1.0000   1.0000
     1.0000   1.0000   1.0000   1.0000   1.0000   1.0000   1.0000   0.0000
     0.0000   0.0000   0.0000

          k = 0.4167 0.2311-0.0000 (  3779 PWs)   bands (ev):

   -26.1620 -26.1537 -18.0204 -15.2512 -14.0027 -12.1059 -10.0261  -8.9552
    -7.9186  -7.6448  -6.8615  -6.5256  -5.1170  -4.2693  -3.4719   3.0649
     4.3848   5.4752   7.7762

     occupation numbers 
     1.0000   1.0000   1.0000   1.0000   1.0000   1.0000   1.0000   1.0000
     1.0000   1.0000   1.0000   1.0000   1.0000   1.0000   1.0000   0.0000
     0.0000   0.0000   0.0000

          k = 0.4167-0.8066 0.0000 (  3790 PWs)   bands (ev):

   -26.0818 -26.0770 -17.2817 -15.0536 -14.2587 -12.7252  -9.8156  -9.0839
    -8.5638  -7.7089  -7.3911  -6.5913  -5.2814  -4.3965  -3.8216   3.8514
     4.4053   5.9883   8.0866

     occupation numbers 
     1.0000   1.0000   1.0000   1.0000   1.0000   1.0000   1.0000   1.0000
     1.0000   1.0000   1.0000   1.0000   1.0000   1.0000   1.0000   0.0000
     0.0000   0.0000   0.0000

          k = 0.4167-0.7122 0.0000 (  3812 PWs)   bands (ev):

   -26.0112 -26.0084 -16.5868 -15.0881 -13.6740 -13.0500 -10.1692  -9.3578
    -9.2119  -8.2380  -7.8124  -6.4573  -5.5712  -4.5292  -4.4502   4.4952
     5.6294   7.2226   7.6876

     occupation numbers 
     1.0000   1.0000   1.0000   1.0000   1.0000   1.0000   1.0000   1.0000
     1.0000   1.0000   1.0000   1.0000   1.0000   1.0000   1.0000   0.0000
     0.0000   0.0000   0.0000

          k = 0.4167-0.6179-0.0000 (  3790 PWs)   bands (ev):

   -25.9669 -25.9641 -16.3751 -14.3788 -13.5906 -12.8701 -10.9781 -10.2301
    -9.1093  -8.4815  -7.9903  -6.2351  -5.6863  -5.1603  -4.5332   4.8501
     5.9648   7.7607   8.8068

     occupation numbers 
     1.0000   1.0000   1.0000   1.0000   1.0000   1.0000   1.0000   1.0000
     1.0000   1.0000   1.0000   1.0000   1.0000   1.0000   1.0000   0.0000
     0.0000   0.0000   0.0000

          k = 0.4167-0.5236-0.0000 (  3797 PWs)   bands (ev):

   -25.9577 -25.9549 -16.3292 -14.2508 -13.6870 -12.8523 -10.9997 -10.3033
    -9.0898  -8.4763  -8.0097  -6.2247  -5.6993  -5.1895  -4.5405   4.8903
     5.9104   7.7418   8.6735

     occupation numbers 
     1.0000   1.0000   1.0000   1.0000   1.0000   1.0000   1.0000   1.0000
     1.0000   1.0000   1.0000   1.0000   1.0000   1.0000   1.0000   0.0000
     0.0000   0.0000   0.0000

          k = 0.4167-0.4292-0.0000 (  3808 PWs)   bands (ev):

   -25.9861 -25.9833 -16.4493 -15.0258 -13.6114 -13.0823 -10.2761  -9.3971
    -9.1956  -8.3051  -7.8292  -6.4489  -5.6004  -4.5572  -4.5163   4.5604
     5.3708   7.1353   7.4700

     occupation numbers 
     1.0000   1.0000   1.0000   1.0000   1.0000   1.0000   1.0000   1.0000
     1.0000   1.0000   1.0000   1.0000   1.0000   1.0000   1.0000   0.0000
     0.0000   0.0000   0.0000

          k = 0.4167-0.3349-0.0000 (  3820 PWs)   bands (ev):

   -26.0480 -26.0433 -17.1522 -14.9237 -14.2563 -12.7077  -9.7771  -9.0800
    -8.7168  -7.7225  -7.5262  -6.5892  -5.2912  -4.4657  -3.9201   3.5729
     4.4245   5.7368   7.9451

     occupation numbers 
     1.0000   1.0000   1.0000   1.0000   1.0000   1.0000   1.0000   1.0000
     1.0000   1.0000   1.0000   1.0000   1.0000   1.0000   1.0000   0.0000
     0.0000   0.0000   0.0000

          k =-0.5000 0.2887 0.0000 (  3800 PWs)   bands (ev):

   -26.0396 -26.0362 -16.8376 -15.4306 -13.9885 -13.2505  -9.7076  -9.1010
    -8.2656  -7.7260  -7.1485  -6.7558  -5.1990  -4.4273  -3.6628   2.8430
     4.1242   5.1447   8.1126

     occupation numbers 
     1.0000   1.0000   1.0000   1.0000   1.0000   1.0000   1.0000   1.0000
     1.0000   1.0000   1.0000   1.0000   1.0000   1.0000   1.0000   0.0000
     0.0000   0.0000   0.0000

          k =-0.5000 0.3830 0.0000 (  3814 PWs)   bands (ev):

   -26.0450 -26.0404 -17.1234 -14.9484 -14.2374 -12.7467  -9.7626  -9.1065
    -8.6835  -7.7672  -7.4722  -6.5981  -5.2920  -4.4643  -3.9110   3.5617
     4.4110   5.7253   7.9500

     occupation numbers 
     1.0000   1.0000   1.0000   1.0000   1.0000   1.0000   1.0000   1.0000
     1.0000   1.0000   1.0000   1.0000   1.0000   1.0000   1.0000   0.0000
     0.0000   0.0000   0.0000

          k =-0.5000 0.4773 0.0000 (  3803 PWs)   bands (ev):

   -26.0571 -26.0508 -17.4799 -14.7547 -13.6884 -12.0098 -10.0116  -9.6220
    -9.0757  -8.2797  -7.5401  -6.3461  -5.4278  -4.5655  -4.3760   4.4989
     5.5200   7.0354   7.4790

     occupation numbers 
     1.0000   1.0000   1.0000   1.0000   1.0000   1.0000   1.0000   1.0000
     1.0000   1.0000   1.0000   1.0000   1.0000   1.0000   1.0000   0.0000
     0.0000   0.0000   0.0000

          k =-0.5000 0.5717 0.0000 (  3798 PWs)   bands (ev):

   -26.0688 -26.0618 -17.6270 -14.8613 -12.9456 -11.9498  -9.9578  -9.9081
    -9.5775  -8.4099  -7.4725  -6.2788  -5.3018  -4.9100  -4.4236   4.7947
     6.1124   6.9893   9.1203

     occupation numbers 
     1.0000   1.0000   1.0000   1.0000   1.0000   1.0000   1.0000   1.0000
     1.0000   1.0000   1.0000   1.0000   1.0000   1.0000   1.0000   0.0000
     0.0000   0.0000   0.0000

          k =-0.5000 0.6660 0.0000 (  3795 PWs)   bands (ev):

   -26.0751 -26.0688 -17.5288 -14.8354 -13.7320 -12.0640  -9.9376  -9.5950
    -9.0310  -8.2426  -7.4982  -6.3644  -5.4115  -4.5297  -4.3131   4.5042
     5.6329   7.1122   7.7339

     occupation numbers 
     1.0000   1.0000   1.0000   1.0000   1.0000   1.0000   1.0000   1.0000
     1.0000   1.0000   1.0000   1.0000   1.0000   1.0000   1.0000   0.0000
     0.0000   0.0000   0.0000

          k =-0.5000 0.7604 0.0000 (  3793 PWs)   bands (ev):

   -26.0761 -26.0715 -17.2277 -15.0917 -14.2325 -12.7975  -9.7911  -9.1222
    -8.5099  -7.7634  -7.3203  -6.6065  -5.2841  -4.3924  -3.8047   3.8378
     4.3743   5.9666   8.0751

     occupation numbers 
     1.0000   1.0000   1.0000   1.0000   1.0000   1.0000   1.0000   1.0000
     1.0000   1.0000   1.0000   1.0000   1.0000   1.0000   1.0000   0.0000
     0.0000   0.0000   0.0000

          k =-0.5000-0.2773 0.0001 (  3794 PWs)   bands (ev):

   -26.0755 -26.0721 -16.9889 -15.5045 -14.0623 -13.2557  -9.7602  -9.1309
    -8.0564  -7.7277  -6.9713  -6.7663  -5.2088  -4.3232  -3.5450   3.1754
     4.0585   5.4032   8.1424

     occupation numbers 
     1.0000   1.0000   1.0000   1.0000   1.0000   1.0000   1.0000   1.0000
     1.0000   1.0000   1.0000   1.0000   1.0000   1.0000   1.0000   0.0000
     0.0000   0.0000   0.0000

     the Fermi energy is     0.6028 ev

!    total energy              =    -189.93846227 Ry
     Harris-Foulkes estimate   =    -189.93846236 Ry
     estimated scf accuracy    <       0.00000011 Ry

     total all-electron energy =      -701.910577 Ry

     The total energy is the sum of the following terms:

     one-electron contribution =   -1559.13233303 Ry
     hartree contribution      =     789.40151441 Ry
     xc contribution           =     -37.29999261 Ry
     ewald contribution        =     662.09191984 Ry
     one-center paw contrib.   =     -44.99957087 Ry
      -> PAW hartree energy AE =     118.87400816 Ry
      -> PAW hartree energy PS =    -118.79369680 Ry
      -> PAW xc energy AE      =     -80.78423783 Ry
      -> PAW xc energy PS      =      35.70435560 Ry
      -> total E_H with PAW    =     789.48182576 Ry
      -> total E_XC with PAW   =     -82.37987484 Ry
     smearing contrib. (-TS)   =      -0.00000000 Ry

     convergence has been achieved in   8 iterations

     negative rho (up, down):  6.517E-04 0.000E+00

     Forces acting on atoms (cartesian axes, Ry/au):

     atom    1 type  1   force =     0.00187687   -0.00234575   -0.01199609
     atom    2 type  1   force =    -0.00220499    0.00297458    0.00349035
     atom    3 type  1   force =    -0.00187804    0.00234365    0.01187622
     atom    4 type  1   force =     0.00220396   -0.00297539   -0.00361333
     atom    5 type  2   force =     0.00014458   -0.00024697    0.01603085
     atom    6 type  2   force =    -0.00014238    0.00024988   -0.01578801
     The non-local contrib.  to forces
     atom    1 type  1   force =     0.00716085   -0.01195934   -0.41238052
     atom    2 type  1   force =    -0.00690103    0.01144948    0.10096292
     atom    3 type  1   force =    -0.00716083    0.01195672    0.41244915
     atom    4 type  1   force =     0.00689856   -0.01145115   -0.10082948
     atom    5 type  2   force =    -0.00137089    0.00242012    3.18069003
     atom    6 type  2   force =     0.00139541   -0.00240192   -3.18031111
     The ionic contribution  to forces
     atom    1 type  1   force =     0.06882204   -0.12201645  -14.12514315
     atom    2 type  1   force =    -0.07128471    0.12664102   -9.58816334
     atom    3 type  1   force =    -0.06878275    0.12203686   14.12530560
     atom    4 type  1   force =     0.07127447   -0.12664375    9.58814226
     atom    5 type  2   force =     0.00731203   -0.01346252  -69.16754724
     atom    6 type  2   force =    -0.00734108    0.01344484   69.16740587
     The local contribution  to forces
     atom    1 type  1   force =    -0.07365545    0.13084480   14.51704051
     atom    2 type  1   force =     0.07552450   -0.13432417    9.49369686
     atom    3 type  1   force =     0.07361746   -0.13086373  -14.51680237
     atom    4 type  1   force =    -0.07551384    0.13432995   -9.49321670
     atom    5 type  2   force =    -0.00580133    0.01080683   66.01359006
     atom    6 type  2   force =     0.00580859   -0.01080326  -66.01350241
     The core correction contribution to forces
     atom    1 type  1   force =    -0.00045174    0.00078667    0.00919016
     atom    2 type  1   force =     0.00045393   -0.00078805   -0.00232064
     atom    3 type  1   force =     0.00044929   -0.00078705   -0.00926937
     atom    4 type  1   force =    -0.00045365    0.00078775    0.00217984
     atom    5 type  2   force =     0.00000436   -0.00001028   -0.01027224
     atom    6 type  2   force =    -0.00000454    0.00000925    0.01027262
     The Hubbard contrib.    to forces
     atom    1 type  1   force =     0.00000000    0.00000000    0.00000000
     atom    2 type  1   force =     0.00000000    0.00000000    0.00000000
     atom    3 type  1   force =     0.00000000    0.00000000    0.00000000
     atom    4 type  1   force =     0.00000000    0.00000000    0.00000000
     atom    5 type  2   force =     0.00000000    0.00000000    0.00000000
     atom    6 type  2   force =     0.00000000    0.00000000    0.00000000
     The SCF correction term to forces
     atom    1 type  1   force =     0.00000100   -0.00000105   -0.00069240
     atom    2 type  1   force =     0.00000216   -0.00000334   -0.00067476
     atom    3 type  1   force =    -0.00000136    0.00000123    0.00020389
     atom    4 type  1   force =    -0.00000174    0.00000217    0.00012143
     atom    5 type  2   force =     0.00000024   -0.00000074   -0.00041907
     atom    6 type  2   force =    -0.00000092    0.00000134    0.00035770

     Total force =     0.029361     Total SCF correction =     0.001138


     Computing stress (Cartesian axis) and pressure


     negative rho (up, down):  6.517E-04 0.000E+00
          total   stress  (Ry/bohr**3)                   (kbar)     P=   11.69
   0.00035687  -0.00009099  -0.00000541         52.50    -13.38     -0.80
  -0.00009099   0.00004006   0.00000684        -13.38      5.89      1.01
  -0.00000541   0.00000684  -0.00015845         -0.80      1.01    -23.31

     kinetic stress (kbar)   9596.68    -13.24      2.31
                              -13.24   9549.27     -4.40
                                2.31     -4.40   8661.86

     local   stress (kbar)-308377.71     73.31     47.98
                               73.31-308103.56    -86.58
                               47.98    -86.58 297855.13

     nonloc. stress (kbar)   3262.28     -0.40     -0.76
                               -0.40   3261.01      1.29
                               -0.76      1.29   2985.19

     hartree stress (kbar) 152000.78    -24.16    -11.31
                              -24.16 151908.62     20.71
                              -11.31     20.71-147388.53

     exc-cor stress (kbar)  -1178.98     -0.08     -0.06
                               -0.08  -1179.26      0.11
                               -0.06      0.11  -1176.25

     corecor stress (kbar)   -976.65      0.26      0.13
                                0.26   -975.77     -0.22
                                0.13     -0.22   -967.22

     ewald   stress (kbar) 145726.11    -49.08    -39.09
                              -49.08 145545.58     70.11
                              -39.09     70.11-159993.50

     hubbard stress (kbar)      0.00      0.00      0.00
                                0.00      0.00      0.00
                                0.00      0.00      0.00

     london  stress (kbar)      0.00      0.00      0.00
                                0.00      0.00      0.00
                                0.00      0.00      0.00

     DFT-D3  stress (kbar)      0.00      0.00      0.00
                                0.00      0.00      0.00
                                0.00      0.00      0.00

     XDM     stress (kbar)      0.00      0.00      0.00
                                0.00      0.00      0.00
                                0.00      0.00      0.00

     dft-nl  stress (kbar)      0.00      0.00      0.00
                                0.00      0.00      0.00
                                0.00      0.00      0.00

     TS-vdW  stress (kbar)      0.00      0.00      0.00
                                0.00      0.00      0.00
                                0.00      0.00      0.00

     3D-RISM stress (kbar)      0.00      0.00      0.00
                                0.00      0.00      0.00
                                0.00      0.00      0.00



     Writing output data file pwscf.save\

     init_run     :     14.91s CPU      7.47s WALL (       1 calls)
     electrons    :     94.03s CPU     62.06s WALL (       1 calls)
     forces       :      7.31s CPU      1.33s WALL (       1 calls)
     stress       :     21.06s CPU      4.43s WALL (       1 calls)

     Called by init_run:
     wfcinit      :      4.25s CPU      2.89s WALL (       1 calls)
     wfcinit:atom :      0.17s CPU      0.15s WALL (      74 calls)
     wfcinit:wfcr :      3.64s CPU      2.27s WALL (      74 calls)
     potinit      :      4.42s CPU      0.59s WALL (       1 calls)
     hinit0       :      6.19s CPU      3.86s WALL (       1 calls)

     Called by electrons:
     c_bands      :     72.22s CPU     50.35s WALL (       8 calls)
     sum_band     :     16.91s CPU      9.48s WALL (       8 calls)
     v_of_rho     :      1.48s CPU      0.54s WALL (       9 calls)
     v_h          :      0.08s CPU      0.04s WALL (       9 calls)
     v_xc         :      1.75s CPU      0.61s WALL (      11 calls)
     newd         :      0.97s CPU      0.60s WALL (       9 calls)
     PAW_pot      :      2.80s CPU      1.20s WALL (       9 calls)
     mix_rho      :      0.28s CPU      0.09s WALL (       8 calls)

     Called by c_bands:
     init_us_2    :      1.41s CPU      0.80s WALL (    1406 calls)
     cegterg      :     69.50s CPU     48.89s WALL (     592 calls)

     Called by sum_band:
     sum_band:bec :      0.17s CPU      0.38s WALL (     592 calls)
     addusdens    :      1.28s CPU      0.79s WALL (       8 calls)

     Called by *egterg:
     h_psi        :     63.88s CPU     39.75s WALL (    2767 calls)
     s_psi        :      1.91s CPU      1.68s WALL (    2767 calls)
     g_psi        :      0.28s CPU      0.31s WALL (    2101 calls)
     cdiaghg      :      1.55s CPU      1.67s WALL (    2693 calls)
     cegterg:over :      2.42s CPU      2.39s WALL (    2101 calls)
     cegterg:upda :      0.97s CPU      2.11s WALL (    2101 calls)
     cegterg:last :      0.34s CPU      0.58s WALL (     593 calls)

     Called by h_psi:
     h_psi:pot    :     63.09s CPU     38.92s WALL (    2767 calls)
     h_psi:calbec :      4.62s CPU      1.95s WALL (    2767 calls)
     vloc_psi     :     56.61s CPU     35.24s WALL (    2767 calls)
     add_vuspsi   :      1.84s CPU      1.72s WALL (    2767 calls)

     General routines
     calbec       :      6.05s CPU      2.78s WALL (    3729 calls)
     fft          :      0.25s CPU      0.13s WALL (     140 calls)
     ffts         :      0.00s CPU      0.01s WALL (      17 calls)
     fftw         :     36.09s CPU     21.65s WALL (   78486 calls)
     interpolate  :      0.02s CPU      0.03s WALL (       9 calls)

     Parallel routines

     PAW routines
     PAW_pot      :      2.80s CPU      1.20s WALL (       9 calls)

     PWSCF        :   2m19.38s CPU   1m17.78s WALL


   This run was terminated on:  14:13: 2   1Dec2024            

=------------------------------------------------------------------------------=
   JOB DONE.
=------------------------------------------------------------------------------=
