
     Program PWSCF v.7.2 starts on  6Dec2024 at  9: 0:51 

     This program is part of the open-source Quantum ESPRESSO suite
     for quantum simulation of materials; please cite
         "P. Giannozzi et al., J. Phys.:Condens. Matter 21 395502 (2009);
         "P. Giannozzi et al., J. Phys.:Condens. Matter 29 465901 (2017);
         "P. Giannozzi et al., J. Chem. Phys. 152 154105 (2020);
          URL http://www.quantum-espresso.org", 
     in publications or presentations arising from this work. More details at
     http://www.quantum-espresso.org/quote

     Parallel version (MPI), running on    12 processors

     MPI processes distributed on     1 nodes
     240777 MiB available memory on the printing compute node when the environment starts
 
     Waiting for input...
     Reading input from standard input
Warning: card &CELL ignored
Warning: card CELL_DOFREE = 'ALL' ignored
Warning: card CELL_DYNAMICS = 'BFGS' ignored
Warning: card PRESS = 0.0 ignored
Warning: card PRESS_CONV_THR = 0.5 ignored
Warning: card / ignored

     Current dimensions of program PWSCF are:
     Max number of different atomic species (ntypx) = 10
     Max number of k-points (npk) =  40000
     Max angular momentum in pseudopotentials (lmaxx) =  4
     file C.pbesol-n-kjpaw_psl.1.0.0.UPF: wavefunction(s)  2S 2P renormalized
     file F.pbesol-n-kjpaw_psl.1.0.0.UPF: wavefunction(s)  2S 2P renormalized
 
     R & G space division:  proc/nbgrp/npool/nimage =      12
     Subspace diagonalization in iterative solution of the eigenvalue problem:
     a serial algorithm will be used

 
     Parallelization info
     --------------------
     sticks:   dense  smooth     PW     G-vecs:    dense   smooth      PW
     Min          48      24      8                 7286     2563     510
     Max          49      26      9                 7307     2578     538
     Sum         583     295     97                87545    30857    6239
 
     Using Slab Decomposition
 


     bravais-lattice index     =            0
     lattice parameter (alat)  =       4.8113  a.u.
     unit-cell volume          =     756.7755 (a.u.)^3
     number of atoms/cell      =            6
     number of atomic types    =            2
     number of electrons       =        30.00
     number of Kohn-Sham states=           19
     kinetic-energy cutoff     =      45.0000  Ry
     charge density cutoff     =     360.0000  Ry
     scf convergence threshold =      1.0E-06
     mixing beta               =       0.7000
     number of iterations used =            8  plain     mixing
     Exchange-correlation= SLA  PW   PSX  PSC
                           (   1   4  10   8   0   0   0)

     celldm(1)=   4.811264  celldm(2)=   0.000000  celldm(3)=   0.000000
     celldm(4)=   0.000000  celldm(5)=   0.000000  celldm(6)=   0.000000

     crystal axes: (cart. coord. in units of alat)
               a(1) = (   1.000000  -0.000000   0.000000 )  
               a(2) = (   0.500000   0.866025   0.000000 )  
               a(3) = (   0.000640   0.000376   7.846189 )  

     reciprocal axes: (cart. coord. in units 2 pi/alat)
               b(1) = (  1.000000 -0.577350 -0.000054 )  
               b(2) = (  0.000000  1.154700 -0.000055 )  
               b(3) = (  0.000000  0.000000  0.127450 )  


     PseudoPot. # 1 for C  read from file:
     ../C.pbesol-n-kjpaw_psl.1.0.0.UPF
     MD5 check sum: f9b2fe17d1f478429498b05d17159f9e
     Pseudo is Projector augmented-wave + core cor, Zval =  4.0
     Generated using &quot;atomic&quot; code by A. Dal Corso  v.6.3
     Shape of augmentation charge: PSQ
     Using radial grid of 1073 points,  4 beta functions with: 
                l(1) =   0
                l(2) =   0
                l(3) =   1
                l(4) =   1
     Q(r) pseudized with 0 coefficients 


     PseudoPot. # 2 for F  read from file:
     ../F.pbesol-n-kjpaw_psl.1.0.0.UPF
     MD5 check sum: d939582bcd23f1ece12cfc4fab8d9d36
     Pseudo is Projector augmented-wave + core cor, Zval =  7.0
     Generated using &quot;atomic&quot; code by A. Dal Corso  v.6.3
     Shape of augmentation charge: PSQ
     Using radial grid of 1105 points,  4 beta functions with: 
                l(1) =   0
                l(2) =   0
                l(3) =   1
                l(4) =   1
     Q(r) pseudized with 0 coefficients 


     atomic species   valence    mass     pseudopotential
        C              4.00    12.01070     C ( 1.00)
        F              7.00    18.99840     F ( 1.00)

     No symmetry found


                                    s                        frac. trans.

      isym =  1     identity                                     

 cryst.   s( 1) = (     1          0          0      )
                  (     0          1          0      )
                  (     0          0          1      )

 cart.    s( 1) = (  1.0000000  0.0000000 -0.0000000 )
                  (  0.0000000  1.0000000  0.0000000 )
                  (  0.0000000  0.0000000  1.0000000 )


   Cartesian axes

     site n.     atom                  positions (alat units)
         1           C   tau(   1) = (   0.0003519   0.0002070   3.9499945  )
         2           C   tau(   2) = (   0.5003526   0.2888824   4.1475548  )
         3           C   tau(   3) = (   1.0003489   0.5775541   4.9554475  )
         4           C   tau(   4) = (   0.5003487   0.2888789   4.7578829  )
         5           F   tau(   5) = (   0.0003452   0.0002019   3.4086906  )
         6           F   tau(   6) = (   1.0003517   0.5775569   5.4967546  )

   Crystallographic axes

     site n.     atom                  positions (cryst. coord.)
         1           C   tau(   1) = (  0.0000192  0.0000206  0.5034284  )
         2           C   tau(   2) = (  0.3333424  0.3333434  0.5286075  )
         3           C   tau(   3) = (  0.6666304  0.6666281  0.6315738  )
         4           C   tau(   4) = (  0.3333076  0.3333056  0.6063941  )
         5           F   tau(   5) = (  0.0000446  0.0000447  0.4344390  )
         6           F   tau(   6) = (  0.6666024  0.6666014  0.7005636  )

     number of k points=    74  Marzari-Vanderbilt smearing, width (Ry)=  0.0200
                       cart. coord. in units 2pi/alat
        k(    1) = (   0.0000000   0.0000000   0.0000000), wk =   0.0138889
        k(    2) = (   0.0000000   0.0962250  -0.0000046), wk =   0.0277778
        k(    3) = (   0.0000000   0.1924501  -0.0000092), wk =   0.0277778
        k(    4) = (   0.0000001   0.2886751  -0.0000138), wk =   0.0277778
        k(    5) = (   0.0000001   0.3849001  -0.0000184), wk =   0.0277778
        k(    6) = (   0.0000001   0.4811251  -0.0000230), wk =   0.0277778
        k(    7) = (  -0.0000001  -0.5773502   0.0000276), wk =   0.0138889
        k(    8) = (   0.0833333  -0.0481125  -0.0000045), wk =   0.0277778
        k(    9) = (   0.0833333   0.0481125  -0.0000091), wk =   0.0277778
        k(   10) = (   0.0833334   0.1443375  -0.0000137), wk =   0.0277778
        k(   11) = (   0.0833334   0.2405626  -0.0000183), wk =   0.0277778
        k(   12) = (   0.0833334   0.3367876  -0.0000229), wk =   0.0277778
        k(   13) = (   0.0833334   0.4330126  -0.0000275), wk =   0.0277778
        k(   14) = (   0.0833332  -0.6254627   0.0000231), wk =   0.0277778
        k(   15) = (   0.0833332  -0.5292376   0.0000185), wk =   0.0277778
        k(   16) = (   0.0833332  -0.4330126   0.0000139), wk =   0.0277778
        k(   17) = (   0.0833333  -0.3367876   0.0000093), wk =   0.0277778
        k(   18) = (   0.0833333  -0.2405626   0.0000047), wk =   0.0277778
        k(   19) = (   0.0833333  -0.1443375   0.0000001), wk =   0.0277778
        k(   20) = (   0.1666666  -0.0962250  -0.0000090), wk =   0.0277778
        k(   21) = (   0.1666667   0.0000000  -0.0000136), wk =   0.0277778
        k(   22) = (   0.1666667   0.0962250  -0.0000182), wk =   0.0277778
        k(   23) = (   0.1666667   0.1924501  -0.0000228), wk =   0.0277778
        k(   24) = (   0.1666667   0.2886751  -0.0000274), wk =   0.0277778
        k(   25) = (   0.1666667   0.3849001  -0.0000320), wk =   0.0277778
        k(   26) = (   0.1666665  -0.6735752   0.0000187), wk =   0.0277778
        k(   27) = (   0.1666665  -0.5773501   0.0000140), wk =   0.0277778
        k(   28) = (   0.1666666  -0.4811251   0.0000094), wk =   0.0277778
        k(   29) = (   0.1666666  -0.3849001   0.0000048), wk =   0.0277778
        k(   30) = (   0.1666666  -0.2886751   0.0000002), wk =   0.0277778
        k(   31) = (   0.1666666  -0.1924500  -0.0000044), wk =   0.0277778
        k(   32) = (   0.2500000  -0.1443375  -0.0000135), wk =   0.0277778
        k(   33) = (   0.2500000  -0.0481125  -0.0000181), wk =   0.0277778
        k(   34) = (   0.2500000   0.0481125  -0.0000227), wk =   0.0277778
        k(   35) = (   0.2500000   0.1443376  -0.0000273), wk =   0.0277778
        k(   36) = (   0.2500000   0.2405626  -0.0000319), wk =   0.0277778
        k(   37) = (   0.2500001   0.3367876  -0.0000365), wk =   0.0277778
        k(   38) = (   0.2499999  -0.7216877   0.0000142), wk =   0.0277778
        k(   39) = (   0.2499999  -0.6254626   0.0000095), wk =   0.0277778
        k(   40) = (   0.2499999  -0.5292376   0.0000049), wk =   0.0277778
        k(   41) = (   0.2499999  -0.4330126   0.0000003), wk =   0.0277778
        k(   42) = (   0.2499999  -0.3367876  -0.0000043), wk =   0.0277778
        k(   43) = (   0.2500000  -0.2405625  -0.0000089), wk =   0.0277778
        k(   44) = (   0.3333333  -0.1924500  -0.0000180), wk =   0.0277778
        k(   45) = (   0.3333333  -0.0962250  -0.0000226), wk =   0.0277778
        k(   46) = (   0.3333333   0.0000000  -0.0000272), wk =   0.0277778
        k(   47) = (   0.3333334   0.0962251  -0.0000318), wk =   0.0277778
        k(   48) = (   0.3333334   0.1924501  -0.0000364), wk =   0.0277778
        k(   49) = (   0.3333334   0.2886751  -0.0000410), wk =   0.0277778
        k(   50) = (   0.3333332  -0.7698002   0.0000097), wk =   0.0277778
        k(   51) = (   0.3333332  -0.6735752   0.0000050), wk =   0.0277778
        k(   52) = (   0.3333332  -0.5773501   0.0000004), wk =   0.0277778
        k(   53) = (   0.3333332  -0.4811251  -0.0000042), wk =   0.0277778
        k(   54) = (   0.3333333  -0.3849001  -0.0000088), wk =   0.0277778
        k(   55) = (   0.3333333  -0.2886751  -0.0000134), wk =   0.0277778
        k(   56) = (   0.4166666  -0.2405625  -0.0000225), wk =   0.0277778
        k(   57) = (   0.4166666  -0.1443375  -0.0000271), wk =   0.0277778
        k(   58) = (   0.4166667  -0.0481125  -0.0000317), wk =   0.0277778
        k(   59) = (   0.4166667   0.0481125  -0.0000363), wk =   0.0277778
        k(   60) = (   0.4166667   0.1443376  -0.0000409), wk =   0.0277778
        k(   61) = (   0.4166667   0.2405626  -0.0000455), wk =   0.0277778
        k(   62) = (   0.4166665  -0.8179127   0.0000052), wk =   0.0277778
        k(   63) = (   0.4166665  -0.7216877   0.0000006), wk =   0.0277778
        k(   64) = (   0.4166665  -0.6254626  -0.0000041), wk =   0.0277778
        k(   65) = (   0.4166666  -0.5292376  -0.0000087), wk =   0.0277778
        k(   66) = (   0.4166666  -0.4330126  -0.0000133), wk =   0.0277778
        k(   67) = (   0.4166666  -0.3367876  -0.0000179), wk =   0.0277778
        k(   68) = (  -0.4999999   0.2886750   0.0000270), wk =   0.0138889
        k(   69) = (  -0.4999999   0.3849001   0.0000224), wk =   0.0277778
        k(   70) = (  -0.4999999   0.4811251   0.0000178), wk =   0.0277778
        k(   71) = (  -0.4999999   0.5773501   0.0000132), wk =   0.0277778
        k(   72) = (  -0.4999999   0.6735751   0.0000086), wk =   0.0277778
        k(   73) = (  -0.4999998   0.7698002   0.0000039), wk =   0.0277778
        k(   74) = (  -0.5000001  -0.2886751   0.0000546), wk =   0.0138889

                       cryst. coord.
        k(    1) = (   0.0000000   0.0000000   0.0000000), wk =   0.0138889
        k(    2) = (   0.0000000   0.0833333  -0.0000000), wk =   0.0277778
        k(    3) = (   0.0000000   0.1666667  -0.0000000), wk =   0.0277778
        k(    4) = (   0.0000000   0.2500000  -0.0000000), wk =   0.0277778
        k(    5) = (   0.0000000   0.3333333  -0.0000000), wk =   0.0277778
        k(    6) = (   0.0000000   0.4166667  -0.0000000), wk =   0.0277778
        k(    7) = (  -0.0000000  -0.5000000   0.0000000), wk =   0.0138889
        k(    8) = (   0.0833333   0.0000000   0.0000000), wk =   0.0277778
        k(    9) = (   0.0833333   0.0833333  -0.0000000), wk =   0.0277778
        k(   10) = (   0.0833333   0.1666667   0.0000000), wk =   0.0277778
        k(   11) = (   0.0833333   0.2500000   0.0000000), wk =   0.0277778
        k(   12) = (   0.0833333   0.3333333   0.0000000), wk =   0.0277778
        k(   13) = (   0.0833333   0.4166667   0.0000000), wk =   0.0277778
        k(   14) = (   0.0833333  -0.5000000   0.0000000), wk =   0.0277778
        k(   15) = (   0.0833333  -0.4166667  -0.0000000), wk =   0.0277778
        k(   16) = (   0.0833333  -0.3333333   0.0000000), wk =   0.0277778
        k(   17) = (   0.0833333  -0.2500000   0.0000000), wk =   0.0277778
        k(   18) = (   0.0833333  -0.1666667   0.0000000), wk =   0.0277778
        k(   19) = (   0.0833333  -0.0833333   0.0000000), wk =   0.0277778
        k(   20) = (   0.1666667   0.0000000   0.0000000), wk =   0.0277778
        k(   21) = (   0.1666667   0.0833333   0.0000000), wk =   0.0277778
        k(   22) = (   0.1666667   0.1666667  -0.0000000), wk =   0.0277778
        k(   23) = (   0.1666667   0.2500000  -0.0000000), wk =   0.0277778
        k(   24) = (   0.1666667   0.3333333   0.0000000), wk =   0.0277778
        k(   25) = (   0.1666667   0.4166667   0.0000000), wk =   0.0277778
        k(   26) = (   0.1666667  -0.5000000   0.0000000), wk =   0.0277778
        k(   27) = (   0.1666667  -0.4166667   0.0000000), wk =   0.0277778
        k(   28) = (   0.1666667  -0.3333333   0.0000000), wk =   0.0277778
        k(   29) = (   0.1666667  -0.2500000   0.0000000), wk =   0.0277778
        k(   30) = (   0.1666667  -0.1666667   0.0000000), wk =   0.0277778
        k(   31) = (   0.1666667  -0.0833333  -0.0000000), wk =   0.0277778
        k(   32) = (   0.2500000   0.0000000  -0.0000000), wk =   0.0277778
        k(   33) = (   0.2500000   0.0833333  -0.0000000), wk =   0.0277778
        k(   34) = (   0.2500000   0.1666667   0.0000000), wk =   0.0277778
        k(   35) = (   0.2500000   0.2500000   0.0000000), wk =   0.0277778
        k(   36) = (   0.2500000   0.3333333  -0.0000000), wk =   0.0277778
        k(   37) = (   0.2500000   0.4166667  -0.0000000), wk =   0.0277778
        k(   38) = (   0.2500000  -0.5000000  -0.0000000), wk =   0.0277778
        k(   39) = (   0.2500000  -0.4166667   0.0000000), wk =   0.0277778
        k(   40) = (   0.2500000  -0.3333333   0.0000000), wk =   0.0277778
        k(   41) = (   0.2500000  -0.2500000  -0.0000000), wk =   0.0277778
        k(   42) = (   0.2500000  -0.1666667   0.0000000), wk =   0.0277778
        k(   43) = (   0.2500000  -0.0833333  -0.0000000), wk =   0.0277778
        k(   44) = (   0.3333333   0.0000000   0.0000000), wk =   0.0277778
        k(   45) = (   0.3333333   0.0833333  -0.0000000), wk =   0.0277778
        k(   46) = (   0.3333333   0.1666667   0.0000000), wk =   0.0277778
        k(   47) = (   0.3333333   0.2500000  -0.0000000), wk =   0.0277778
        k(   48) = (   0.3333333   0.3333333  -0.0000000), wk =   0.0277778
        k(   49) = (   0.3333333   0.4166667  -0.0000000), wk =   0.0277778
        k(   50) = (   0.3333333  -0.5000000   0.0000000), wk =   0.0277778
        k(   51) = (   0.3333333  -0.4166667   0.0000000), wk =   0.0277778
        k(   52) = (   0.3333333  -0.3333333   0.0000000), wk =   0.0277778
        k(   53) = (   0.3333333  -0.2500000   0.0000000), wk =   0.0277778
        k(   54) = (   0.3333333  -0.1666667  -0.0000000), wk =   0.0277778
        k(   55) = (   0.3333333  -0.0833333  -0.0000000), wk =   0.0277778
        k(   56) = (   0.4166667  -0.0000000  -0.0000000), wk =   0.0277778
        k(   57) = (   0.4166667   0.0833333  -0.0000000), wk =   0.0277778
        k(   58) = (   0.4166667   0.1666667   0.0000000), wk =   0.0277778
        k(   59) = (   0.4166667   0.2500000  -0.0000000), wk =   0.0277778
        k(   60) = (   0.4166667   0.3333333  -0.0000000), wk =   0.0277778
        k(   61) = (   0.4166667   0.4166667  -0.0000000), wk =   0.0277778
        k(   62) = (   0.4166667  -0.5000000  -0.0000000), wk =   0.0277778
        k(   63) = (   0.4166667  -0.4166667  -0.0000000), wk =   0.0277778
        k(   64) = (   0.4166667  -0.3333333  -0.0000000), wk =   0.0277778
        k(   65) = (   0.4166667  -0.2500000  -0.0000000), wk =   0.0277778
        k(   66) = (   0.4166667  -0.1666667  -0.0000000), wk =   0.0277778
        k(   67) = (   0.4166667  -0.0833333  -0.0000000), wk =   0.0277778
        k(   68) = (  -0.5000000   0.0000000   0.0000000), wk =   0.0138889
        k(   69) = (  -0.5000000   0.0833333   0.0000000), wk =   0.0277778
        k(   70) = (  -0.5000000   0.1666667   0.0000000), wk =   0.0277778
        k(   71) = (  -0.5000000   0.2500000   0.0000000), wk =   0.0277778
        k(   72) = (  -0.5000000   0.3333333   0.0000000), wk =   0.0277778
        k(   73) = (  -0.5000000   0.4166667   0.0000000), wk =   0.0277778
        k(   74) = (  -0.5000000  -0.5000000   0.0000000), wk =   0.0138889

     Dense  grid:    87545 G-vectors     FFT dimensions: (  30,  30, 240)

     Smooth grid:    30857 G-vectors     FFT dimensions: (  24,  24, 162)

     Dynamical RAM for                 wfc:       0.09 MB

     Dynamical RAM for     wfc (w. buffer):       6.98 MB

     Dynamical RAM for           str. fact:       0.22 MB

     Dynamical RAM for           local pot:       0.00 MB

     Dynamical RAM for          nlocal pot:       0.24 MB

     Dynamical RAM for                qrad:       0.87 MB

     Dynamical RAM for          rho,v,vnew:       0.75 MB

     Dynamical RAM for               rhoin:       0.25 MB

     Dynamical RAM for            rho*nmix:       1.78 MB

     Dynamical RAM for           G-vectors:       0.44 MB

     Dynamical RAM for          h,s,v(r/c):       0.07 MB

     Dynamical RAM for          <psi|beta>:       0.01 MB

     Dynamical RAM for                 psi:       0.19 MB

     Dynamical RAM for                hpsi:       0.19 MB

     Dynamical RAM for                spsi:       0.19 MB

     Dynamical RAM for      wfcinit/wfcrot:       0.25 MB

     Dynamical RAM for           addusdens:       5.24 MB

     Dynamical RAM for          addusforce:       5.97 MB

     Dynamical RAM for         addusstress:       5.57 MB

     Estimated static dynamical RAM per process >      10.76 MB

     Estimated max dynamical RAM per process >      18.51 MB

     Estimated total dynamical RAM >     222.17 MB

     Check: negative core charge=   -0.000005

     Initial potential from superposition of free atoms

     starting charge      29.9998, renormalised to      30.0000

     negative rho (up, down):  4.827E-04 0.000E+00
     Starting wfcs are   24 randomized atomic wfcs
     Checking if some PAW data can be deallocated... 
       PAW data deallocated on    4 nodes for type:  1
       PAW data deallocated on    8 nodes for type:  2

     total cpu time spent up to now is        0.9 secs

     Self-consistent Calculation

     iteration #  1     ecut=    45.00 Ry     beta= 0.70
     Davidson diagonalization with overlap

---- Real-time Memory Report at c_bands before calling an iterative solver
           125 MiB given to the printing process from OS
             0 MiB allocation reported by mallinfo(arena+hblkhd)
        240363 MiB available memory on the node where the printing process lives
------------------
     ethr =  1.00E-02,  avg # of iterations =  2.7

     negative rho (up, down):  5.610E-04 0.000E+00

     total cpu time spent up to now is        1.9 secs

     total energy              =    -189.87966425 Ry
     estimated scf accuracy    <       0.32471028 Ry

     iteration #  2     ecut=    45.00 Ry     beta= 0.70
     Davidson diagonalization with overlap

---- Real-time Memory Report at c_bands before calling an iterative solver
           133 MiB given to the printing process from OS
             0 MiB allocation reported by mallinfo(arena+hblkhd)
        238953 MiB available memory on the node where the printing process lives
------------------
     ethr =  1.08E-03,  avg # of iterations =  2.2

     negative rho (up, down):  5.946E-04 0.000E+00

     total cpu time spent up to now is        3.1 secs

     total energy              =    -189.90910628 Ry
     estimated scf accuracy    <       0.10036553 Ry

     iteration #  3     ecut=    45.00 Ry     beta= 0.70
     Davidson diagonalization with overlap

---- Real-time Memory Report at c_bands before calling an iterative solver
           136 MiB given to the printing process from OS
             0 MiB allocation reported by mallinfo(arena+hblkhd)
        238618 MiB available memory on the node where the printing process lives
------------------
     ethr =  3.35E-04,  avg # of iterations =  6.0

     negative rho (up, down):  5.982E-04 0.000E+00

     total cpu time spent up to now is        4.5 secs

     total energy              =    -189.93003439 Ry
     estimated scf accuracy    <       0.04373938 Ry

     iteration #  4     ecut=    45.00 Ry     beta= 0.70
     Davidson diagonalization with overlap

---- Real-time Memory Report at c_bands before calling an iterative solver
           136 MiB given to the printing process from OS
             0 MiB allocation reported by mallinfo(arena+hblkhd)
        238098 MiB available memory on the node where the printing process lives
------------------
     ethr =  1.46E-04,  avg # of iterations =  4.8

     negative rho (up, down):  6.024E-04 0.000E+00

     total cpu time spent up to now is        5.9 secs

     total energy              =    -189.94021953 Ry
     estimated scf accuracy    <       0.00675086 Ry

     iteration #  5     ecut=    45.00 Ry     beta= 0.70
     Davidson diagonalization with overlap

---- Real-time Memory Report at c_bands before calling an iterative solver
           137 MiB given to the printing process from OS
             0 MiB allocation reported by mallinfo(arena+hblkhd)
        238073 MiB available memory on the node where the printing process lives
------------------
     ethr =  2.25E-05,  avg # of iterations =  5.1

     negative rho (up, down):  6.068E-04 0.000E+00

     total cpu time spent up to now is        7.3 secs

     total energy              =    -189.94146659 Ry
     estimated scf accuracy    <       0.00006080 Ry

     iteration #  6     ecut=    45.00 Ry     beta= 0.70
     Davidson diagonalization with overlap

---- Real-time Memory Report at c_bands before calling an iterative solver
           137 MiB given to the printing process from OS
             0 MiB allocation reported by mallinfo(arena+hblkhd)
        238077 MiB available memory on the node where the printing process lives
------------------
     c_bands:  1 eigenvalues not converged
     c_bands:  1 eigenvalues not converged
     ethr =  2.03E-07,  avg # of iterations =  6.3

     negative rho (up, down):  6.082E-04 0.000E+00

     total cpu time spent up to now is        9.0 secs

     total energy              =    -189.94151221 Ry
     estimated scf accuracy    <       0.00003202 Ry

     iteration #  7     ecut=    45.00 Ry     beta= 0.70
     Davidson diagonalization with overlap

---- Real-time Memory Report at c_bands before calling an iterative solver
           137 MiB given to the printing process from OS
             0 MiB allocation reported by mallinfo(arena+hblkhd)
        236106 MiB available memory on the node where the printing process lives
------------------
     ethr =  1.07E-07,  avg # of iterations =  2.4

     negative rho (up, down):  6.084E-04 0.000E+00

     total cpu time spent up to now is       10.2 secs

     total energy              =    -189.94151477 Ry
     estimated scf accuracy    <       0.00000266 Ry

     iteration #  8     ecut=    45.00 Ry     beta= 0.70
     Davidson diagonalization with overlap

---- Real-time Memory Report at c_bands before calling an iterative solver
           137 MiB given to the printing process from OS
             0 MiB allocation reported by mallinfo(arena+hblkhd)
        236111 MiB available memory on the node where the printing process lives
------------------
     ethr =  8.86E-09,  avg # of iterations =  3.6

     negative rho (up, down):  6.085E-04 0.000E+00

     total cpu time spent up to now is       11.8 secs

     End of self-consistent calculation

          k = 0.0000 0.0000 0.0000 (  3855 PWs)   bands (ev):

   -27.2617 -27.2095 -21.5703 -18.1498 -12.1377  -9.3641  -6.1825  -5.6689
    -5.6689  -5.4014  -5.4014  -3.1473  -3.1472  -1.9129  -1.9129   1.9980
     4.5843   4.8340   4.8340

     occupation numbers 
     1.0000   1.0000   1.0000   1.0000   1.0000   1.0000   1.0000   1.0000
     1.0000   1.0000   1.0000   1.0000   1.0000   1.0000   1.0000   0.0000
     0.0000   0.0000   0.0000

          k = 0.0000 0.0962-0.0000 (  3825 PWs)   bands (ev):

   -27.1959 -27.1469 -21.4223 -18.0237 -12.0406  -9.3349  -6.5370  -6.0025
    -5.8678  -5.6841  -5.5095  -3.5938  -3.3260  -2.4481  -2.0992   2.3435
     4.4529   5.2183   5.3024

     occupation numbers 
     1.0000   1.0000   1.0000   1.0000   1.0000   1.0000   1.0000   1.0000
     1.0000   1.0000   1.0000   1.0000   1.0000   1.0000   1.0000   0.0000
     0.0000   0.0000   0.0000

          k = 0.0000 0.1925-0.0000 (  3829 PWs)   bands (ev):

   -27.0124 -26.9721 -20.9790 -17.6474 -11.7677  -9.2890  -7.7388  -7.1321
    -6.3874  -6.1308  -5.8179  -4.3042  -3.6790  -3.5806  -2.5362   2.8770
     4.2241   5.9659   6.2132

     occupation numbers 
     1.0000   1.0000   1.0000   1.0000   1.0000   1.0000   1.0000   1.0000
     1.0000   1.0000   1.0000   1.0000   1.0000   1.0000   1.0000   0.0000
     0.0000   0.0000   0.0000

          k = 0.0000 0.2887-0.0000 (  3853 PWs)   bands (ev):

   -26.7516 -26.7229 -20.2435 -17.0269 -11.4193  -9.8380  -9.1698  -8.3871
    -7.0357  -6.7627  -6.2455  -4.9772  -4.5633  -4.0039  -2.9960   2.9861
     4.2773   6.0080   7.0310

     occupation numbers 
     1.0000   1.0000   1.0000   1.0000   1.0000   1.0000   1.0000   1.0000
     1.0000   1.0000   1.0000   1.0000   1.0000   1.0000   1.0000   0.0000
     0.0000   0.0000   0.0000

          k = 0.0000 0.3849-0.0000 (  3877 PWs)   bands (ev):

   -26.4780 -26.4605 -19.2260 -16.1775 -12.1652 -10.8186 -10.1960  -8.8298
    -7.6158  -7.3586  -6.6651  -5.9039  -4.9322  -4.2494  -3.3517   2.8448
     4.4664   5.7016   7.3606

     occupation numbers 
     1.0000   1.0000   1.0000   1.0000   1.0000   1.0000   1.0000   1.0000
     1.0000   1.0000   1.0000   1.0000   1.0000   1.0000   1.0000   0.0000
     0.0000   0.0000   0.0000

          k = 0.0000 0.4811-0.0000 (  3862 PWs)   bands (ev):

   -26.2688 -26.2589 -17.9735 -15.1956 -13.9681 -12.1017 -10.0472  -9.0347
    -8.0031  -7.6893  -6.9626  -6.5583  -5.1501  -4.4035  -3.5691   2.8394
     4.2983   5.2412   7.5877

     occupation numbers 
     1.0000   1.0000   1.0000   1.0000   1.0000   1.0000   1.0000   1.0000
     1.0000   1.0000   1.0000   1.0000   1.0000   1.0000   1.0000   0.0000
     0.0000   0.0000   0.0000

          k =-0.0000-0.5774 0.0000 (  3866 PWs)   bands (ev):

   -26.1901 -26.1831 -16.9918 -15.4494 -13.9870 -13.2207  -9.7905  -9.2168
    -8.1379  -7.7693  -7.0690  -6.7903  -5.2354  -4.4563  -3.6420   2.9252
     3.9944   5.1699   7.9734

     occupation numbers 
     1.0000   1.0000   1.0000   1.0000   1.0000   1.0000   1.0000   1.0000
     1.0000   1.0000   1.0000   1.0000   1.0000   1.0000   1.0000   0.0000
     0.0000   0.0000   0.0000

          k = 0.0833-0.0481-0.0000 (  3825 PWs)   bands (ev):

   -27.1959 -27.1469 -21.4223 -18.0237 -12.0406  -9.3349  -6.5370  -6.0025
    -5.8678  -5.6841  -5.5095  -3.5938  -3.3260  -2.4481  -2.0992   2.3435
     4.4529   5.2183   5.3024

     occupation numbers 
     1.0000   1.0000   1.0000   1.0000   1.0000   1.0000   1.0000   1.0000
     1.0000   1.0000   1.0000   1.0000   1.0000   1.0000   1.0000   0.0000
     0.0000   0.0000   0.0000

          k = 0.0833 0.0481-0.0000 (  3825 PWs)   bands (ev):

   -27.1959 -27.1469 -21.4223 -18.0237 -12.0406  -9.3349  -6.5370  -6.0025
    -5.8679  -5.6840  -5.5095  -3.5938  -3.3260  -2.4481  -2.0992   2.3435
     4.4528   5.2183   5.3026

     occupation numbers 
     1.0000   1.0000   1.0000   1.0000   1.0000   1.0000   1.0000   1.0000
     1.0000   1.0000   1.0000   1.0000   1.0000   1.0000   1.0000   0.0000
     0.0000   0.0000   0.0000

          k = 0.0833 0.1443-0.0000 (  3808 PWs)   bands (ev):

   -27.0712 -27.0282 -21.1266 -17.7725 -11.8550  -9.2938  -7.2523  -6.6850
    -6.4293  -6.0605  -5.6483  -4.0134  -3.8175  -3.0363  -2.5595   2.8379
     4.4496   5.5550   5.8803

     occupation numbers 
     1.0000   1.0000   1.0000   1.0000   1.0000   1.0000   1.0000   1.0000
     1.0000   1.0000   1.0000   1.0000   1.0000   1.0000   1.0000   0.0000
     0.0000   0.0000   0.0000

          k = 0.0833 0.2406-0.0000 (  3837 PWs)   bands (ev):

   -26.8487 -26.8158 -20.5370 -17.2737 -11.5301  -9.3518  -8.6505  -7.8517
    -7.1844  -6.6703  -5.9954  -4.6829  -4.3319  -3.7827  -3.1133   3.3880
     4.4216   6.1961   6.6291

     occupation numbers 
     1.0000   1.0000   1.0000   1.0000   1.0000   1.0000   1.0000   1.0000
     1.0000   1.0000   1.0000   1.0000   1.0000   1.0000   1.0000   0.0000
     0.0000   0.0000   0.0000

          k = 0.0833 0.3368-0.0000 (  3856 PWs)   bands (ev):

   -26.5806 -26.5589 -19.6590 -16.5364 -11.4337 -10.4931  -9.6958  -8.6862
    -7.8738  -7.2796  -6.5509  -5.5105  -4.7759  -4.2309  -3.5062   3.4829
     4.6271   6.3268   7.2738

     occupation numbers 
     1.0000   1.0000   1.0000   1.0000   1.0000   1.0000   1.0000   1.0000
     1.0000   1.0000   1.0000   1.0000   1.0000   1.0000   1.0000   0.0000
     0.0000   0.0000   0.0000

          k = 0.0833 0.4330-0.0000 (  3875 PWs)   bands (ev):

   -26.3378 -26.3252 -18.5140 -15.5913 -13.0264 -11.3441 -10.1619  -8.9613
    -8.3412  -7.6640  -7.0999  -6.2237  -5.1298  -4.4194  -3.7713   3.4510
     4.7311   5.8968   7.6083

     occupation numbers 
     1.0000   1.0000   1.0000   1.0000   1.0000   1.0000   1.0000   1.0000
     1.0000   1.0000   1.0000   1.0000   1.0000   1.0000   1.0000   0.0000
     0.0000   0.0000   0.0000

          k = 0.0833-0.6255 0.0000 (  3882 PWs)   bands (ev):

   -26.1926 -26.1851 -17.2358 -15.0472 -14.1666 -12.7416  -9.8343  -9.1880
    -8.6003  -7.7762  -7.4368  -6.6287  -5.3221  -4.5076  -3.9093   3.6217
     4.2887   5.7513   7.8633

     occupation numbers 
     1.0000   1.0000   1.0000   1.0000   1.0000   1.0000   1.0000   1.0000
     1.0000   1.0000   1.0000   1.0000   1.0000   1.0000   1.0000   0.0000
     0.0000   0.0000   0.0000

          k = 0.0833-0.5292 0.0000 (  3882 PWs)   bands (ev):

   -26.1926 -26.1851 -17.2358 -15.0472 -14.1666 -12.7416  -9.8343  -9.1880
    -8.6003  -7.7762  -7.4368  -6.6287  -5.3221  -4.5076  -3.9093   3.6217
     4.2887   5.7513   7.8642

     occupation numbers 
     1.0000   1.0000   1.0000   1.0000   1.0000   1.0000   1.0000   1.0000
     1.0000   1.0000   1.0000   1.0000   1.0000   1.0000   1.0000   0.0000
     0.0000   0.0000   0.0000

          k = 0.0833-0.4330 0.0000 (  3875 PWs)   bands (ev):

   -26.3378 -26.3252 -18.5140 -15.5913 -13.0264 -11.3441 -10.1619  -8.9613
    -8.3412  -7.6640  -7.0999  -6.2237  -5.1298  -4.4194  -3.7713   3.4510
     4.7311   5.8968   7.6081

     occupation numbers 
     1.0000   1.0000   1.0000   1.0000   1.0000   1.0000   1.0000   1.0000
     1.0000   1.0000   1.0000   1.0000   1.0000   1.0000   1.0000   0.0000
     0.0000   0.0000   0.0000

          k = 0.0833-0.3368 0.0000 (  3856 PWs)   bands (ev):

   -26.5806 -26.5589 -19.6590 -16.5364 -11.4337 -10.4931  -9.6958  -8.6862
    -7.8738  -7.2796  -6.5509  -5.5105  -4.7759  -4.2309  -3.5062   3.4830
     4.6271   6.3268   7.2738

     occupation numbers 
     1.0000   1.0000   1.0000   1.0000   1.0000   1.0000   1.0000   1.0000
     1.0000   1.0000   1.0000   1.0000   1.0000   1.0000   1.0000   0.0000
     0.0000   0.0000   0.0000

          k = 0.0833-0.2406 0.0000 (  3837 PWs)   bands (ev):

   -26.8487 -26.8158 -20.5370 -17.2737 -11.5301  -9.3518  -8.6505  -7.8517
    -7.1844  -6.6703  -5.9954  -4.6829  -4.3319  -3.7827  -3.1134   3.3881
     4.4216   6.1962   6.6290

     occupation numbers 
     1.0000   1.0000   1.0000   1.0000   1.0000   1.0000   1.0000   1.0000
     1.0000   1.0000   1.0000   1.0000   1.0000   1.0000   1.0000   0.0000
     0.0000   0.0000   0.0000

          k = 0.0833-0.1443 0.0000 (  3807 PWs)   bands (ev):

   -27.0712 -27.0282 -21.1266 -17.7725 -11.8550  -9.2938  -7.2523  -6.6850
    -6.4293  -6.0605  -5.6483  -4.0134  -3.8175  -3.0363  -2.5595   2.8379
     4.4496   5.5550   5.8802

     occupation numbers 
     1.0000   1.0000   1.0000   1.0000   1.0000   1.0000   1.0000   1.0000
     1.0000   1.0000   1.0000   1.0000   1.0000   1.0000   1.0000   0.0000
     0.0000   0.0000   0.0000

          k = 0.1667-0.0962-0.0000 (  3829 PWs)   bands (ev):

   -27.0124 -26.9721 -20.9790 -17.6474 -11.7677  -9.2890  -7.7388  -7.1321
    -6.3874  -6.1308  -5.8179  -4.3042  -3.6790  -3.5806  -2.5362   2.8770
     4.2241   5.9658   6.2132

     occupation numbers 
     1.0000   1.0000   1.0000   1.0000   1.0000   1.0000   1.0000   1.0000
     1.0000   1.0000   1.0000   1.0000   1.0000   1.0000   1.0000   0.0000
     0.0000   0.0000   0.0000

          k = 0.1667 0.0000-0.0000 (  3808 PWs)   bands (ev):

   -27.0712 -27.0282 -21.1266 -17.7725 -11.8550  -9.2938  -7.2523  -6.6850
    -6.4293  -6.0605  -5.6483  -4.0134  -3.8175  -3.0363  -2.5595   2.8379
     4.4495   5.5550   5.8802

     occupation numbers 
     1.0000   1.0000   1.0000   1.0000   1.0000   1.0000   1.0000   1.0000
     1.0000   1.0000   1.0000   1.0000   1.0000   1.0000   1.0000   0.0000
     0.0000   0.0000   0.0000

          k = 0.1667 0.0962-0.0000 (  3829 PWs)   bands (ev):

   -27.0124 -26.9721 -20.9790 -17.6474 -11.7677  -9.2890  -7.7388  -7.1321
    -6.3874  -6.1308  -5.8179  -4.3042  -3.6790  -3.5806  -2.5362   2.8770
     4.2240   5.9638   6.0762

     occupation numbers 
     1.0000   1.0000   1.0000   1.0000   1.0000   1.0000   1.0000   1.0000
     1.0000   1.0000   1.0000   1.0000   1.0000   1.0000   1.0000   0.0000
     0.0000   0.0000   0.0000

          k = 0.1667 0.1925-0.0000 (  3837 PWs)   bands (ev):

   -26.8487 -26.8158 -20.5370 -17.2737 -11.5301  -9.3518  -8.6505  -7.8517
    -7.1844  -6.6703  -5.9954  -4.6829  -4.3319  -3.7827  -3.1134   3.3880
     4.4216   6.1961   6.6291

     occupation numbers 
     1.0000   1.0000   1.0000   1.0000   1.0000   1.0000   1.0000   1.0000
     1.0000   1.0000   1.0000   1.0000   1.0000   1.0000   1.0000   0.0000
     0.0000   0.0000   0.0000

          k = 0.1667 0.2887-0.0000 (  3844 PWs)   bands (ev):

   -26.6181 -26.5948 -19.8039 -16.6568 -11.2921  -9.7950  -9.7270  -8.4763
    -8.1812  -7.6236  -6.3903  -5.4316  -4.5857  -4.1174  -3.9025   4.2978
     4.6177   6.6492   7.7963

     occupation numbers 
     1.0000   1.0000   1.0000   1.0000   1.0000   1.0000   1.0000   1.0000
     1.0000   1.0000   1.0000   1.0000   1.0000   1.0000   1.0000   0.0000
     0.0000   0.0000   0.0000

          k = 0.1667 0.3849-0.0000 (  3867 PWs)   bands (ev):

   -26.3788 -26.3643 -18.7919 -15.8117 -12.0207 -10.8656 -10.0809  -9.1362
    -8.8057  -8.2040  -7.0104  -6.0179  -5.0100  -4.4926  -4.2409   4.4722
     5.1560   7.1345   7.4961

     occupation numbers 
     1.0000   1.0000   1.0000   1.0000   1.0000   1.0000   1.0000   1.0000
     1.0000   1.0000   1.0000   1.0000   1.0000   1.0000   1.0000   0.0000
     0.0000   0.0000   0.0000

          k = 0.1667-0.6736 0.0000 (  3870 PWs)   bands (ev):

   -26.1977 -26.1891 -17.5529 -14.8308 -13.6456 -11.9975  -9.9882  -9.6542
    -9.0968  -8.2642  -7.6138  -6.3675  -5.4584  -4.5965  -4.4440   4.4081
     5.4769   7.0060   7.4147

     occupation numbers 
     1.0000   1.0000   1.0000   1.0000   1.0000   1.0000   1.0000   1.0000
     1.0000   1.0000   1.0000   1.0000   1.0000   1.0000   1.0000   0.0000
     0.0000   0.0000   0.0000

          k = 0.1667-0.5774 0.0000 (  3885 PWs)   bands (ev):

   -26.1301 -26.1234 -16.5957 -15.0477 -13.5997 -13.0549 -10.1796  -9.4408
    -9.2443  -8.2704  -7.8794  -6.4880  -5.6223  -4.5834  -4.5608   4.4175
     5.4015   7.0727   7.4091

     occupation numbers 
     1.0000   1.0000   1.0000   1.0000   1.0000   1.0000   1.0000   1.0000
     1.0000   1.0000   1.0000   1.0000   1.0000   1.0000   1.0000   0.0000
     0.0000   0.0000   0.0000

          k = 0.1667-0.4811 0.0000 (  3870 PWs)   bands (ev):

   -26.1977 -26.1891 -17.5529 -14.8308 -13.6456 -11.9975  -9.9882  -9.6541
    -9.0968  -8.2642  -7.6138  -6.3675  -5.4584  -4.5965  -4.4440   4.4081
     5.4769   7.0059   7.4147

     occupation numbers 
     1.0000   1.0000   1.0000   1.0000   1.0000   1.0000   1.0000   1.0000
     1.0000   1.0000   1.0000   1.0000   1.0000   1.0000   1.0000   0.0000
     0.0000   0.0000   0.0000

          k = 0.1667-0.3849 0.0000 (  3867 PWs)   bands (ev):

   -26.3788 -26.3643 -18.7920 -15.8117 -12.0207 -10.8656 -10.0809  -9.1362
    -8.8057  -8.2040  -7.0104  -6.0179  -5.0100  -4.4927  -4.2409   4.4722
     5.1560   7.1345   7.4961

     occupation numbers 
     1.0000   1.0000   1.0000   1.0000   1.0000   1.0000   1.0000   1.0000
     1.0000   1.0000   1.0000   1.0000   1.0000   1.0000   1.0000   0.0000
     0.0000   0.0000   0.0000

          k = 0.1667-0.2887 0.0000 (  3843 PWs)   bands (ev):

   -26.6181 -26.5948 -19.8039 -16.6568 -11.2921  -9.7950  -9.7270  -8.4763
    -8.1812  -7.6236  -6.3903  -5.4316  -4.5857  -4.1174  -3.9025   4.2978
     4.6178   6.6491   7.6742

     occupation numbers 
     1.0000   1.0000   1.0000   1.0000   1.0000   1.0000   1.0000   1.0000
     1.0000   1.0000   1.0000   1.0000   1.0000   1.0000   1.0000   0.0000
     0.0000   0.0000   0.0000

          k = 0.1667-0.1925-0.0000 (  3837 PWs)   bands (ev):

   -26.8487 -26.8158 -20.5370 -17.2737 -11.5301  -9.3518  -8.6505  -7.8517
    -7.1844  -6.6703  -5.9954  -4.6829  -4.3319  -3.7827  -3.1134   3.3881
     4.4216   6.1961   6.6291

     occupation numbers 
     1.0000   1.0000   1.0000   1.0000   1.0000   1.0000   1.0000   1.0000
     1.0000   1.0000   1.0000   1.0000   1.0000   1.0000   1.0000   0.0000
     0.0000   0.0000   0.0000

          k = 0.2500-0.1443-0.0000 (  3853 PWs)   bands (ev):

   -26.7516 -26.7229 -20.2435 -17.0269 -11.4193  -9.8380  -9.1698  -8.3871
    -7.0357  -6.7628  -6.2455  -4.9772  -4.5633  -4.0039  -2.9960   2.9861
     4.2773   6.0080   7.0310

     occupation numbers 
     1.0000   1.0000   1.0000   1.0000   1.0000   1.0000   1.0000   1.0000
     1.0000   1.0000   1.0000   1.0000   1.0000   1.0000   1.0000   0.0000
     0.0000   0.0000   0.0000

          k = 0.2500-0.0481-0.0000 (  3837 PWs)   bands (ev):

   -26.8487 -26.8158 -20.5370 -17.2737 -11.5301  -9.3518  -8.6505  -7.8517
    -7.1844  -6.6703  -5.9954  -4.6829  -4.3319  -3.7827  -3.1133   3.3880
     4.4216   6.1962   6.6298

     occupation numbers 
     1.0000   1.0000   1.0000   1.0000   1.0000   1.0000   1.0000   1.0000
     1.0000   1.0000   1.0000   1.0000   1.0000   1.0000   1.0000   0.0000
     0.0000   0.0000   0.0000

          k = 0.2500 0.0481-0.0000 (  3837 PWs)   bands (ev):

   -26.8487 -26.8158 -20.5370 -17.2737 -11.5301  -9.3518  -8.6505  -7.8517
    -7.1844  -6.6703  -5.9954  -4.6829  -4.3319  -3.7827  -3.1133   3.3880
     4.4216   6.1961   6.6291

     occupation numbers 
     1.0000   1.0000   1.0000   1.0000   1.0000   1.0000   1.0000   1.0000
     1.0000   1.0000   1.0000   1.0000   1.0000   1.0000   1.0000   0.0000
     0.0000   0.0000   0.0000

          k = 0.2500 0.1443-0.0000 (  3853 PWs)   bands (ev):

   -26.7516 -26.7229 -20.2435 -17.0269 -11.4193  -9.8380  -9.1698  -8.3871
    -7.0357  -6.7628  -6.2455  -4.9772  -4.5633  -4.0039  -2.9960   2.9861
     4.2773   6.0080   7.0310

     occupation numbers 
     1.0000   1.0000   1.0000   1.0000   1.0000   1.0000   1.0000   1.0000
     1.0000   1.0000   1.0000   1.0000   1.0000   1.0000   1.0000   0.0000
     0.0000   0.0000   0.0000

          k = 0.2500 0.2406-0.0000 (  3856 PWs)   bands (ev):

   -26.5806 -26.5589 -19.6590 -16.5364 -11.4337 -10.4931  -9.6957  -8.6862
    -7.8738  -7.2796  -6.5509  -5.5105  -4.7759  -4.2309  -3.5062   3.4829
     4.6270   6.3268   7.2739

     occupation numbers 
     1.0000   1.0000   1.0000   1.0000   1.0000   1.0000   1.0000   1.0000
     1.0000   1.0000   1.0000   1.0000   1.0000   1.0000   1.0000   0.0000
     0.0000   0.0000   0.0000

          k = 0.2500 0.3368-0.0000 (  3867 PWs)   bands (ev):

   -26.3788 -26.3643 -18.7919 -15.8117 -12.0207 -10.8656 -10.0809  -9.1362
    -8.8057  -8.2040  -7.0104  -6.0179  -5.0100  -4.4926  -4.2409   4.4722
     5.1559   7.1345   7.4961

     occupation numbers 
     1.0000   1.0000   1.0000   1.0000   1.0000   1.0000   1.0000   1.0000
     1.0000   1.0000   1.0000   1.0000   1.0000   1.0000   1.0000   0.0000
     0.0000   0.0000   0.0000

          k = 0.2500-0.7217 0.0000 (  3885 PWs)   bands (ev):

   -26.2003 -26.1911 -17.6726 -14.8847 -12.9018 -11.8865 -10.0005  -9.9537
    -9.5580  -8.4670  -7.5717  -6.2808  -5.3102  -5.0053  -4.5160   4.7009
     5.9786   6.8768   9.0467

     occupation numbers 
     1.0000   1.0000   1.0000   1.0000   1.0000   1.0000   1.0000   1.0000
     1.0000   1.0000   1.0000   1.0000   1.0000   1.0000   1.0000   0.0000
     0.0000   0.0000   0.0000

          k = 0.2500-0.6255 0.0000 (  3858 PWs)   bands (ev):

   -26.0956 -26.0888 -16.4586 -14.2978 -13.6574 -12.7535 -10.9450 -10.2613
    -9.1464  -8.5396  -8.0711  -6.2483  -5.7323  -5.2350  -4.6024   4.7649
     5.8300   7.6209   8.6102

     occupation numbers 
     1.0000   1.0000   1.0000   1.0000   1.0000   1.0000   1.0000   1.0000
     1.0000   1.0000   1.0000   1.0000   1.0000   1.0000   1.0000   0.0000
     0.0000   0.0000   0.0000

          k = 0.2500-0.5292 0.0000 (  3858 PWs)   bands (ev):

   -26.0956 -26.0888 -16.4586 -14.2978 -13.6573 -12.7535 -10.9450 -10.2613
    -9.1464  -8.5396  -8.0711  -6.2483  -5.7323  -5.2349  -4.6024   4.7650
     5.8300   7.6209   8.6102

     occupation numbers 
     1.0000   1.0000   1.0000   1.0000   1.0000   1.0000   1.0000   1.0000
     1.0000   1.0000   1.0000   1.0000   1.0000   1.0000   1.0000   0.0000
     0.0000   0.0000   0.0000

          k = 0.2500-0.4330 0.0000 (  3885 PWs)   bands (ev):

   -26.2003 -26.1911 -17.6726 -14.8847 -12.9018 -11.8865 -10.0005  -9.9537
    -9.5580  -8.4670  -7.5716  -6.2808  -5.3102  -5.0053  -4.5160   4.7010
     5.9785   6.8768   9.0468

     occupation numbers 
     1.0000   1.0000   1.0000   1.0000   1.0000   1.0000   1.0000   1.0000
     1.0000   1.0000   1.0000   1.0000   1.0000   1.0000   1.0000   0.0000
     0.0000   0.0000   0.0000

          k = 0.2500-0.3368-0.0000 (  3867 PWs)   bands (ev):

   -26.3788 -26.3643 -18.7920 -15.8117 -12.0207 -10.8656 -10.0809  -9.1362
    -8.8057  -8.2040  -7.0104  -6.0179  -5.0100  -4.4927  -4.2409   4.4722
     5.1560   7.1345   7.4961

     occupation numbers 
     1.0000   1.0000   1.0000   1.0000   1.0000   1.0000   1.0000   1.0000
     1.0000   1.0000   1.0000   1.0000   1.0000   1.0000   1.0000   0.0000
     0.0000   0.0000   0.0000

          k = 0.2500-0.2406-0.0000 (  3856 PWs)   bands (ev):

   -26.5806 -26.5589 -19.6590 -16.5364 -11.4337 -10.4931  -9.6958  -8.6862
    -7.8738  -7.2796  -6.5509  -5.5105  -4.7759  -4.2309  -3.5062   3.4830
     4.6271   6.3268   7.2738

     occupation numbers 
     1.0000   1.0000   1.0000   1.0000   1.0000   1.0000   1.0000   1.0000
     1.0000   1.0000   1.0000   1.0000   1.0000   1.0000   1.0000   0.0000
     0.0000   0.0000   0.0000

          k = 0.3333-0.1925-0.0000 (  3877 PWs)   bands (ev):

   -26.4780 -26.4605 -19.2260 -16.1775 -12.1652 -10.8186 -10.1960  -8.8298
    -7.6158  -7.3586  -6.6651  -5.9039  -4.9322  -4.2494  -3.3517   2.8448
     4.4664   5.7016   7.3606

     occupation numbers 
     1.0000   1.0000   1.0000   1.0000   1.0000   1.0000   1.0000   1.0000
     1.0000   1.0000   1.0000   1.0000   1.0000   1.0000   1.0000   0.0000
     0.0000   0.0000   0.0000

          k = 0.3333-0.0962-0.0000 (  3856 PWs)   bands (ev):

   -26.5806 -26.5589 -19.6590 -16.5364 -11.4337 -10.4931  -9.6958  -8.6862
    -7.8738  -7.2796  -6.5509  -5.5105  -4.7759  -4.2309  -3.5061   3.4829
     4.6271   6.3268   7.2739

     occupation numbers 
     1.0000   1.0000   1.0000   1.0000   1.0000   1.0000   1.0000   1.0000
     1.0000   1.0000   1.0000   1.0000   1.0000   1.0000   1.0000   0.0000
     0.0000   0.0000   0.0000

          k = 0.3333 0.0000-0.0000 (  3844 PWs)   bands (ev):

   -26.6181 -26.5948 -19.8039 -16.6568 -11.2921  -9.7950  -9.7270  -8.4763
    -8.1812  -7.6236  -6.3903  -5.4316  -4.5857  -4.1174  -3.9025   4.2978
     4.6177   6.6491   7.6742

     occupation numbers 
     1.0000   1.0000   1.0000   1.0000   1.0000   1.0000   1.0000   1.0000
     1.0000   1.0000   1.0000   1.0000   1.0000   1.0000   1.0000   0.0000
     0.0000   0.0000   0.0000

          k = 0.3333 0.0962-0.0000 (  3856 PWs)   bands (ev):

   -26.5806 -26.5589 -19.6590 -16.5364 -11.4337 -10.4931  -9.6957  -8.6862
    -7.8738  -7.2796  -6.5509  -5.5105  -4.7759  -4.2309  -3.5062   3.4829
     4.6270   6.3268   7.2738

     occupation numbers 
     1.0000   1.0000   1.0000   1.0000   1.0000   1.0000   1.0000   1.0000
     1.0000   1.0000   1.0000   1.0000   1.0000   1.0000   1.0000   0.0000
     0.0000   0.0000   0.0000

          k = 0.3333 0.1925-0.0000 (  3877 PWs)   bands (ev):

   -26.4780 -26.4605 -19.2260 -16.1775 -12.1652 -10.8186 -10.1960  -8.8298
    -7.6158  -7.3587  -6.6651  -5.9039  -4.9322  -4.2494  -3.3518   2.8447
     4.4663   5.7016   7.3606

     occupation numbers 
     1.0000   1.0000   1.0000   1.0000   1.0000   1.0000   1.0000   1.0000
     1.0000   1.0000   1.0000   1.0000   1.0000   1.0000   1.0000   0.0000
     0.0000   0.0000   0.0000

          k = 0.3333 0.2887-0.0000 (  3875 PWs)   bands (ev):

   -26.3378 -26.3252 -18.5140 -15.5913 -13.0264 -11.3441 -10.1619  -8.9613
    -8.3412  -7.6640  -7.0999  -6.2237  -5.1297  -4.4194  -3.7713   3.4510
     4.7310   5.8968   7.6083

     occupation numbers 
     1.0000   1.0000   1.0000   1.0000   1.0000   1.0000   1.0000   1.0000
     1.0000   1.0000   1.0000   1.0000   1.0000   1.0000   1.0000   0.0000
     0.0000   0.0000   0.0000

          k = 0.3333-0.7698 0.0000 (  3870 PWs)   bands (ev):

   -26.1977 -26.1891 -17.5529 -14.8308 -13.6456 -11.9975  -9.9882  -9.6542
    -9.0968  -8.2642  -7.6138  -6.3675  -5.4584  -4.5965  -4.4440   4.4080
     5.4769   7.0058   7.4147

     occupation numbers 
     1.0000   1.0000   1.0000   1.0000   1.0000   1.0000   1.0000   1.0000
     1.0000   1.0000   1.0000   1.0000   1.0000   1.0000   1.0000   0.0000
     0.0000   0.0000   0.0000

          k = 0.3333-0.6736 0.0000 (  3858 PWs)   bands (ev):

   -26.0956 -26.0888 -16.4586 -14.2978 -13.6573 -12.7535 -10.9450 -10.2613
    -9.1463  -8.5396  -8.0711  -6.2483  -5.7323  -5.2349  -4.6024   4.7649
     5.8301   7.6209   8.6102

     occupation numbers 
     1.0000   1.0000   1.0000   1.0000   1.0000   1.0000   1.0000   1.0000
     1.0000   1.0000   1.0000   1.0000   1.0000   1.0000   1.0000   0.0000
     0.0000   0.0000   0.0000

          k = 0.3333-0.5774 0.0000 (  3843 PWs)   bands (ev):

   -26.0584 -26.0520 -15.8046 -13.9707 -13.9681 -12.8923 -11.1245 -11.1226
    -8.6389  -8.5830  -8.5789  -5.8693  -5.8288  -5.8234  -4.6276   5.2293
     5.2313   8.4362   9.1907

     occupation numbers 
     1.0000   1.0000   1.0000   1.0000   1.0000   1.0000   1.0000   1.0000
     1.0000   1.0000   1.0000   1.0000   1.0000   1.0000   1.0000   0.0000
     0.0000   0.0000   0.0000

          k = 0.3333-0.4811-0.0000 (  3858 PWs)   bands (ev):

   -26.0956 -26.0888 -16.4586 -14.2978 -13.6573 -12.7535 -10.9450 -10.2613
    -9.1464  -8.5396  -8.0711  -6.2483  -5.7323  -5.2349  -4.6024   4.7650
     5.8300   7.6209   8.6102

     occupation numbers 
     1.0000   1.0000   1.0000   1.0000   1.0000   1.0000   1.0000   1.0000
     1.0000   1.0000   1.0000   1.0000   1.0000   1.0000   1.0000   0.0000
     0.0000   0.0000   0.0000

          k = 0.3333-0.3849-0.0000 (  3870 PWs)   bands (ev):

   -26.1977 -26.1891 -17.5529 -14.8308 -13.6456 -11.9975  -9.9882  -9.6541
    -9.0968  -8.2642  -7.6138  -6.3675  -5.4584  -4.5965  -4.4440   4.4081
     5.4769   7.0057   7.4147

     occupation numbers 
     1.0000   1.0000   1.0000   1.0000   1.0000   1.0000   1.0000   1.0000
     1.0000   1.0000   1.0000   1.0000   1.0000   1.0000   1.0000   0.0000
     0.0000   0.0000   0.0000

          k = 0.3333-0.2887-0.0000 (  3875 PWs)   bands (ev):

   -26.3378 -26.3252 -18.5140 -15.5913 -13.0264 -11.3441 -10.1619  -8.9613
    -8.3412  -7.6640  -7.0999  -6.2237  -5.1297  -4.4194  -3.7713   3.4510
     4.7311   5.8968   7.6087

     occupation numbers 
     1.0000   1.0000   1.0000   1.0000   1.0000   1.0000   1.0000   1.0000
     1.0000   1.0000   1.0000   1.0000   1.0000   1.0000   1.0000   0.0000
     0.0000   0.0000   0.0000

          k = 0.4167-0.2406-0.0000 (  3862 PWs)   bands (ev):

   -26.2688 -26.2589 -17.9735 -15.1956 -13.9681 -12.1017 -10.0472  -9.0347
    -8.0031  -7.6893  -6.9626  -6.5583  -5.1500  -4.4035  -3.5691   2.8394
     4.2983   5.2412   7.5877

     occupation numbers 
     1.0000   1.0000   1.0000   1.0000   1.0000   1.0000   1.0000   1.0000
     1.0000   1.0000   1.0000   1.0000   1.0000   1.0000   1.0000   0.0000
     0.0000   0.0000   0.0000

          k = 0.4167-0.1443-0.0000 (  3875 PWs)   bands (ev):

   -26.3378 -26.3252 -18.5140 -15.5913 -13.0264 -11.3441 -10.1619  -8.9613
    -8.3412  -7.6640  -7.0999  -6.2237  -5.1298  -4.4194  -3.7713   3.4510
     4.7311   5.8968   7.6082

     occupation numbers 
     1.0000   1.0000   1.0000   1.0000   1.0000   1.0000   1.0000   1.0000
     1.0000   1.0000   1.0000   1.0000   1.0000   1.0000   1.0000   0.0000
     0.0000   0.0000   0.0000

          k = 0.4167-0.0481-0.0000 (  3867 PWs)   bands (ev):

   -26.3788 -26.3643 -18.7919 -15.8117 -12.0207 -10.8656 -10.0809  -9.1362
    -8.8057  -8.2040  -7.0104  -6.0179  -5.0100  -4.4926  -4.2409   4.4722
     5.1560   7.1345   7.4961

     occupation numbers 
     1.0000   1.0000   1.0000   1.0000   1.0000   1.0000   1.0000   1.0000
     1.0000   1.0000   1.0000   1.0000   1.0000   1.0000   1.0000   0.0000
     0.0000   0.0000   0.0000

          k = 0.4167 0.0481-0.0000 (  3867 PWs)   bands (ev):

   -26.3788 -26.3643 -18.7919 -15.8117 -12.0207 -10.8656 -10.0809  -9.1362
    -8.8057  -8.2040  -7.0104  -6.0179  -5.0100  -4.4926  -4.2409   4.4722
     5.1559   7.1345   7.4961

     occupation numbers 
     1.0000   1.0000   1.0000   1.0000   1.0000   1.0000   1.0000   1.0000
     1.0000   1.0000   1.0000   1.0000   1.0000   1.0000   1.0000   0.0000
     0.0000   0.0000   0.0000

          k = 0.4167 0.1443-0.0000 (  3875 PWs)   bands (ev):

   -26.3378 -26.3252 -18.5140 -15.5913 -13.0264 -11.3441 -10.1619  -8.9613
    -8.3412  -7.6640  -7.0999  -6.2237  -5.1297  -4.4194  -3.7713   3.4510
     4.7310   5.8969   7.6084

     occupation numbers 
     1.0000   1.0000   1.0000   1.0000   1.0000   1.0000   1.0000   1.0000
     1.0000   1.0000   1.0000   1.0000   1.0000   1.0000   1.0000   0.0000
     0.0000   0.0000   0.0000

          k = 0.4167 0.2406-0.0000 (  3863 PWs)   bands (ev):

   -26.2688 -26.2589 -17.9735 -15.1956 -13.9681 -12.1017 -10.0472  -9.0347
    -8.0031  -7.6894  -6.9626  -6.5583  -5.1500  -4.4035  -3.5691   2.8393
     4.2982   5.2413   7.5877

     occupation numbers 
     1.0000   1.0000   1.0000   1.0000   1.0000   1.0000   1.0000   1.0000
     1.0000   1.0000   1.0000   1.0000   1.0000   1.0000   1.0000   0.0000
     0.0000   0.0000   0.0000

          k = 0.4167-0.8179 0.0000 (  3882 PWs)   bands (ev):

   -26.1926 -26.1851 -17.2358 -15.0472 -14.1666 -12.7416  -9.8343  -9.1880
    -8.6003  -7.7762  -7.4368  -6.6287  -5.3221  -4.5076  -3.9093   3.6217
     4.2887   5.7513   7.8638

     occupation numbers 
     1.0000   1.0000   1.0000   1.0000   1.0000   1.0000   1.0000   1.0000
     1.0000   1.0000   1.0000   1.0000   1.0000   1.0000   1.0000   0.0000
     0.0000   0.0000   0.0000

          k = 0.4167-0.7217 0.0000 (  3885 PWs)   bands (ev):

   -26.1301 -26.1234 -16.5957 -15.0478 -13.5997 -13.0549 -10.1796  -9.4408
    -9.2443  -8.2704  -7.8795  -6.4880  -5.6223  -4.5834  -4.5608   4.4174
     5.4015   7.0728   7.4091

     occupation numbers 
     1.0000   1.0000   1.0000   1.0000   1.0000   1.0000   1.0000   1.0000
     1.0000   1.0000   1.0000   1.0000   1.0000   1.0000   1.0000   0.0000
     0.0000   0.0000   0.0000

          k = 0.4167-0.6255-0.0000 (  3858 PWs)   bands (ev):

   -26.0956 -26.0888 -16.4586 -14.2978 -13.6573 -12.7535 -10.9450 -10.2613
    -9.1463  -8.5396  -8.0711  -6.2483  -5.7323  -5.2350  -4.6024   4.7649
     5.8301   7.6209   8.6102

     occupation numbers 
     1.0000   1.0000   1.0000   1.0000   1.0000   1.0000   1.0000   1.0000
     1.0000   1.0000   1.0000   1.0000   1.0000   1.0000   1.0000   0.0000
     0.0000   0.0000   0.0000

          k = 0.4167-0.5292-0.0000 (  3858 PWs)   bands (ev):

   -26.0956 -26.0888 -16.4586 -14.2978 -13.6574 -12.7535 -10.9450 -10.2613
    -9.1463  -8.5396  -8.0711  -6.2483  -5.7323  -5.2350  -4.6024   4.7649
     5.8301   7.6209   8.6102

     occupation numbers 
     1.0000   1.0000   1.0000   1.0000   1.0000   1.0000   1.0000   1.0000
     1.0000   1.0000   1.0000   1.0000   1.0000   1.0000   1.0000   0.0000
     0.0000   0.0000   0.0000

          k = 0.4167-0.4330-0.0000 (  3885 PWs)   bands (ev):

   -26.1301 -26.1234 -16.5957 -15.0477 -13.5997 -13.0549 -10.1796  -9.4408
    -9.2443  -8.2704  -7.8794  -6.4880  -5.6223  -4.5834  -4.5608   4.4174
     5.4015   7.0728   7.4091

     occupation numbers 
     1.0000   1.0000   1.0000   1.0000   1.0000   1.0000   1.0000   1.0000
     1.0000   1.0000   1.0000   1.0000   1.0000   1.0000   1.0000   0.0000
     0.0000   0.0000   0.0000

          k = 0.4167-0.3368-0.0000 (  3882 PWs)   bands (ev):

   -26.1926 -26.1851 -17.2358 -15.0472 -14.1666 -12.7416  -9.8343  -9.1880
    -8.6003  -7.7762  -7.4368  -6.6287  -5.3221  -4.5076  -3.9093   3.6217
     4.2887   5.7513   7.8634

     occupation numbers 
     1.0000   1.0000   1.0000   1.0000   1.0000   1.0000   1.0000   1.0000
     1.0000   1.0000   1.0000   1.0000   1.0000   1.0000   1.0000   0.0000
     0.0000   0.0000   0.0000

          k =-0.5000 0.2887 0.0000 (  3866 PWs)   bands (ev):

   -26.1901 -26.1831 -16.9918 -15.4495 -13.9870 -13.2207  -9.7904  -9.2168
    -8.1379  -7.7693  -7.0691  -6.7903  -5.2353  -4.4563  -3.6420   2.9252
     3.9943   5.1699   7.9731

     occupation numbers 
     1.0000   1.0000   1.0000   1.0000   1.0000   1.0000   1.0000   1.0000
     1.0000   1.0000   1.0000   1.0000   1.0000   1.0000   1.0000   0.0000
     0.0000   0.0000   0.0000

          k =-0.5000 0.3849 0.0000 (  3882 PWs)   bands (ev):

   -26.1926 -26.1851 -17.2358 -15.0472 -14.1666 -12.7416  -9.8343  -9.1880
    -8.6003  -7.7762  -7.4368  -6.6287  -5.3221  -4.5076  -3.9093   3.6217
     4.2887   5.7513   7.8638

     occupation numbers 
     1.0000   1.0000   1.0000   1.0000   1.0000   1.0000   1.0000   1.0000
     1.0000   1.0000   1.0000   1.0000   1.0000   1.0000   1.0000   0.0000
     0.0000   0.0000   0.0000

          k =-0.5000 0.4811 0.0000 (  3870 PWs)   bands (ev):

   -26.1977 -26.1891 -17.5529 -14.8308 -13.6456 -11.9975  -9.9882  -9.6542
    -9.0968  -8.2642  -7.6138  -6.3675  -5.4584  -4.5965  -4.4440   4.4081
     5.4769   7.0060   7.4147

     occupation numbers 
     1.0000   1.0000   1.0000   1.0000   1.0000   1.0000   1.0000   1.0000
     1.0000   1.0000   1.0000   1.0000   1.0000   1.0000   1.0000   0.0000
     0.0000   0.0000   0.0000

          k =-0.5000 0.5774 0.0000 (  3885 PWs)   bands (ev):

   -26.2003 -26.1911 -17.6726 -14.8847 -12.9018 -11.8865 -10.0005  -9.9537
    -9.5580  -8.4670  -7.5717  -6.2808  -5.3102  -5.0053  -4.5160   4.7009
     5.9786   6.8768   9.0467

     occupation numbers 
     1.0000   1.0000   1.0000   1.0000   1.0000   1.0000   1.0000   1.0000
     1.0000   1.0000   1.0000   1.0000   1.0000   1.0000   1.0000   0.0000
     0.0000   0.0000   0.0000

          k =-0.5000 0.6736 0.0000 (  3870 PWs)   bands (ev):

   -26.1977 -26.1891 -17.5529 -14.8308 -13.6456 -11.9975  -9.9882  -9.6542
    -9.0968  -8.2642  -7.6138  -6.3675  -5.4584  -4.5965  -4.4440   4.4080
     5.4769   7.0058   7.4147

     occupation numbers 
     1.0000   1.0000   1.0000   1.0000   1.0000   1.0000   1.0000   1.0000
     1.0000   1.0000   1.0000   1.0000   1.0000   1.0000   1.0000   0.0000
     0.0000   0.0000   0.0000

          k =-0.5000 0.7698 0.0000 (  3882 PWs)   bands (ev):

   -26.1926 -26.1851 -17.2358 -15.0472 -14.1666 -12.7416  -9.8343  -9.1880
    -8.6003  -7.7762  -7.4368  -6.6287  -5.3221  -4.5076  -3.9093   3.6217
     4.2887   5.7513   7.8639

     occupation numbers 
     1.0000   1.0000   1.0000   1.0000   1.0000   1.0000   1.0000   1.0000
     1.0000   1.0000   1.0000   1.0000   1.0000   1.0000   1.0000   0.0000
     0.0000   0.0000   0.0000

          k =-0.5000-0.2887 0.0001 (  3866 PWs)   bands (ev):

   -26.1901 -26.1831 -16.9917 -15.4495 -13.9869 -13.2207  -9.7904  -9.2168
    -8.1379  -7.7693  -7.0691  -6.7903  -5.2353  -4.4563  -3.6420   2.9251
     3.9943   5.1699   7.9751

     occupation numbers 
     1.0000   1.0000   1.0000   1.0000   1.0000   1.0000   1.0000   1.0000
     1.0000   1.0000   1.0000   1.0000   1.0000   1.0000   1.0000   0.0000
     0.0000   0.0000   0.0000

     the Fermi energy is     0.1290 ev

!    total energy              =    -189.94151574 Ry
     total all-electron energy =      -701.913630 Ry
     estimated scf accuracy    <       0.00000062 Ry
     smearing contrib. (-TS)   =       0.00000000 Ry
     internal energy E=F+TS    =    -189.94151574 Ry

     The total energy is F=E-TS. E is the sum of the following terms:
     one-electron contribution =   -1530.24377831 Ry
     hartree contribution      =     774.85362707 Ry
     xc contribution           =     -37.22375680 Ry
     ewald contribution        =     647.67024970 Ry
     one-center paw contrib.   =     -44.99785740 Ry
      -> PAW hartree energy AE =       8.25973231 Ry
      -> PAW hartree energy PS =      -8.25188236 Ry
      -> PAW xc energy AE      =     -10.05521510 Ry
      -> PAW xc energy PS      =       4.16243414 Ry
      -> total E_H with PAW    =     774.86147701 Ry
      -> total E_XC with PAW   =     -43.11653776 Ry

     convergence has been achieved in   8 iterations

     negative rho (up, down):  6.085E-04 0.000E+00

     Forces acting on atoms (cartesian axes, Ry/au):

     atom    1 type  1   force =    -0.00000142   -0.00000147   -0.01040939
     atom    2 type  1   force =    -0.00000328   -0.00000297    0.00134322
     atom    3 type  1   force =     0.00000224    0.00000041    0.00995985
     atom    4 type  1   force =     0.00000476    0.00000164   -0.00167319
     atom    5 type  2   force =     0.00000104    0.00000346    0.01720355
     atom    6 type  2   force =    -0.00000333   -0.00000107   -0.01642405
     The non-local contrib.  to forces
     atom    1 type  1   force =    -0.00000402   -0.00000426   -0.40811654
     atom    2 type  1   force =    -0.00000320   -0.00000162    0.09182674
     atom    3 type  1   force =     0.00000356    0.00000486    0.40834298
     atom    4 type  1   force =     0.00000352    0.00000374   -0.09131636
     atom    5 type  2   force =     0.00003778    0.00003669    3.17660080
     atom    6 type  2   force =    -0.00002419   -0.00001685   -3.17516914
     The ionic contribution  to forces
     atom    1 type  1   force =     0.00006252    0.00004491  -13.70670199
     atom    2 type  1   force =    -0.00000212    0.00000174   -9.48498899
     atom    3 type  1   force =    -0.00002319   -0.00002283   13.70686293
     atom    4 type  1   force =    -0.00000691   -0.00000675    9.48496798
     atom    5 type  2   force =    -0.00005179   -0.00003890  -67.88753034
     atom    6 type  2   force =     0.00002149    0.00002183   67.88739041
     The local contribution  to forces
     atom    1 type  1   force =    -0.00005982   -0.00004063   14.09740877
     atom    2 type  1   force =     0.00000033   -0.00000272    9.39796257
     atom    3 type  1   force =     0.00002105    0.00001804  -14.09610989
     atom    4 type  1   force =     0.00000830    0.00000444   -9.39643810
     atom    5 type  2   force =     0.00001461    0.00000544   64.73924849
     atom    6 type  2   force =    -0.00000231   -0.00000430  -64.73907875
     The core correction contribution to forces
     atom    1 type  1   force =    -0.00000030   -0.00000018    0.00873168
     atom    2 type  1   force =    -0.00000014   -0.00000012   -0.00176568
     atom    3 type  1   force =     0.00000055    0.00000017   -0.00882001
     atom    4 type  1   force =     0.00000041    0.00000014    0.00161724
     atom    5 type  2   force =    -0.00000010   -0.00000019   -0.01026159
     atom    6 type  2   force =     0.00000015    0.00000007    0.01025919
     The Hubbard contrib.    to forces
     atom    1 type  1   force =     0.00000000    0.00000000    0.00000000
     atom    2 type  1   force =     0.00000000    0.00000000    0.00000000
     atom    3 type  1   force =     0.00000000    0.00000000    0.00000000
     atom    4 type  1   force =     0.00000000    0.00000000    0.00000000
     atom    5 type  2   force =     0.00000000    0.00000000    0.00000000
     atom    6 type  2   force =     0.00000000    0.00000000    0.00000000
     The SCF correction term to forces
     atom    1 type  1   force =    -0.00000022   -0.00000068   -0.00160817
     atom    2 type  1   force =     0.00000144    0.00000039   -0.00156827
     atom    3 type  1   force =    -0.00000015    0.00000082   -0.00019302
     atom    4 type  1   force =    -0.00000098    0.00000070   -0.00038080
     atom    5 type  2   force =     0.00000012    0.00000105   -0.00073067
     atom    6 type  2   force =     0.00000111   -0.00000118    0.00029738

     Total force =     0.027890     Total SCF correction =     0.002419


     Computing stress (Cartesian axis) and pressure


     negative rho (up, down):  6.085E-04 0.000E+00
          total   stress  (Ry/bohr**3)                   (kbar)     P=       -8.50
  -0.00000160  -0.00000000  -0.00000001           -0.24       -0.00       -0.00
  -0.00000000  -0.00000160  -0.00000001           -0.00       -0.24       -0.00
  -0.00000001  -0.00000001  -0.00017009           -0.00       -0.00      -25.02

     kinetic stress (kbar)   9345.76     -0.00     -0.01
                               -0.00   9345.76     -0.01
                               -0.01     -0.01   8475.05

     local   stress (kbar)-296298.58      0.01     -0.03
                                0.01-296298.60     -0.02
                               -0.03     -0.02 285883.25

     nonloc. stress (kbar)   3195.78     -0.00     -0.00
                               -0.00   3195.78     -0.00
                               -0.00     -0.00   2926.55

     hartree stress (kbar) 146065.18     -0.00      0.01
                               -0.00 146065.19      0.01
                                0.01      0.01-141511.19

     exc-cor stress (kbar)  -1152.02     -0.00      0.00
                               -0.00  -1152.02      0.00
                                0.00      0.00  -1148.89

     corecor stress (kbar)   -955.82      0.00      0.00
                                0.00   -955.82      0.00
                                0.00      0.00   -947.57

     ewald   stress (kbar) 139799.48     -0.01      0.03
                               -0.01 139799.49      0.03
                                0.03      0.03-153702.21

     hubbard stress (kbar)      0.00      0.00      0.00
                                0.00      0.00      0.00
                                0.00      0.00      0.00

     DFT-D   stress (kbar)      0.00      0.00      0.00
                                0.00      0.00      0.00
                                0.00      0.00      0.00

     XDM     stress (kbar)      0.00      0.00      0.00
                                0.00      0.00      0.00
                                0.00      0.00      0.00

     dft-nl  stress (kbar)      0.00      0.00      0.00
                                0.00      0.00      0.00
                                0.00      0.00      0.00

     TS-vdW  stress (kbar)      0.00      0.00      0.00
                                0.00      0.00      0.00
                                0.00      0.00      0.00

     MDB     stress (kbar)      0.00      0.00      0.00
                                0.00      0.00      0.00
                                0.00      0.00      0.00

     3D-RISM stress (kbar)      0.00      0.00      0.00
                                0.00      0.00      0.00
                                0.00      0.00      0.00


     Writing all to output data dir ./ab_f.save/
 
     init_run     :      0.67s CPU      0.73s WALL (       1 calls)
     electrons    :      9.56s CPU     10.89s WALL (       1 calls)
     forces       :      0.50s CPU      0.51s WALL (       1 calls)
     stress       :      1.94s CPU      2.00s WALL (       1 calls)

     Called by init_run:
     wfcinit      :      0.28s CPU      0.29s WALL (       1 calls)
     wfcinit:atom :      0.00s CPU      0.00s WALL (      74 calls)
     wfcinit:wfcr :      0.25s CPU      0.26s WALL (      74 calls)
     potinit      :      0.11s CPU      0.12s WALL (       1 calls)
     hinit0       :      0.25s CPU      0.28s WALL (       1 calls)

     Called by electrons:
     c_bands      :      7.92s CPU      8.97s WALL (       8 calls)
     sum_band     :      1.24s CPU      1.51s WALL (       8 calls)
     v_of_rho     :      0.08s CPU      0.08s WALL (       9 calls)
     v_h          :      0.00s CPU      0.00s WALL (       9 calls)
     v_xc         :      0.09s CPU      0.10s WALL (      11 calls)
     newd         :      0.13s CPU      0.13s WALL (       9 calls)
     PAW_pot      :      0.20s CPU      0.21s WALL (       9 calls)
     mix_rho      :      0.01s CPU      0.01s WALL (       8 calls)

     Called by c_bands:
     init_us_2    :      0.12s CPU      0.13s WALL (    1406 calls)
     init_us_2:cp :      0.12s CPU      0.13s WALL (    1406 calls)
     cegterg      :      7.49s CPU      8.53s WALL (     592 calls)

     Called by sum_band:
     sum_band:wei :      0.00s CPU      0.00s WALL (       8 calls)
     sum_band:loo :      1.12s CPU      1.36s WALL (       8 calls)
     sum_band:buf :      0.01s CPU      0.01s WALL (     592 calls)
     sum_band:ini :      0.05s CPU      0.05s WALL (     592 calls)
     sum_band:cal :      0.07s CPU      0.08s WALL (     592 calls)
     sum_band:bec :      0.01s CPU      0.01s WALL (     592 calls)
     addusdens    :      0.09s CPU      0.09s WALL (       8 calls)
                                        0.00s GPU  (       8 calls)
     addusd:skk   :      0.00s CPU      0.00s WALL (      16 calls)
                                        0.00s GPU  (      16 calls)

     Called by *egterg:
     cdiaghg      :      1.35s CPU      1.42s WALL (    3042 calls)
     cegterg:over :      0.41s CPU      0.46s WALL (    2450 calls)
     cegterg:upda :      0.08s CPU      0.09s WALL (    2450 calls)
     cegterg:last :      0.15s CPU      0.15s WALL (    1414 calls)
     h_psi        :      5.21s CPU      6.10s WALL (    3116 calls)
     s_psi        :      0.10s CPU      0.11s WALL (    3116 calls)
     g_psi        :      0.03s CPU      0.03s WALL (    2450 calls)

     Called by h_psi:
     h_psi:calbec :      0.25s CPU      0.28s WALL (    3116 calls)
     vloc_psi     :      4.81s CPU      5.66s WALL (    3116 calls)
     add_vuspsi   :      0.11s CPU      0.12s WALL (    3116 calls)

     General routines
     calbec       :      0.86s CPU      0.91s WALL (    4078 calls)
     fft          :      0.12s CPU      0.19s WALL (     140 calls)
     ffts         :      0.00s CPU      0.00s WALL (      17 calls)
     fftw         :      4.97s CPU      5.89s WALL (   79812 calls)
     interpolate  :      0.00s CPU      0.01s WALL (       9 calls)
 
     Parallel routines

     PAW routines
     PAW_pot      :      0.20s CPU      0.21s WALL (       9 calls)
 
     PWSCF        :     12.92s CPU     14.44s WALL

 
   This run was terminated on:   9: 1: 5   6Dec2024            

=------------------------------------------------------------------------------=
   JOB DONE.
=------------------------------------------------------------------------------=
