
     Program PWSCF v.6.4.1 starts on  1Dec2024 at 14:14:21 

     This program is part of the open-source Quantum ESPRESSO suite
     for quantum simulation of materials; please cite
         "P. Giannozzi et al., J. Phys.:Condens. Matter 21 395502 (2009);
         "P. Giannozzi et al., J. Phys.:Condens. Matter 29 465901 (2017);
          URL http://www.quantum-espresso.org", 
     in publications or presentations arising from this work. More details at
     http://www.quantum-espresso.org/quote

     Parallel version (MPI & OpenMP), running on      12 processor cores
     Number of MPI processes:                 1
     Threads/MPI process:                    12

     MPI processes distributed on     1 nodes
     Waiting for input...
     Reading input from standard input
Warning: card &IONS ignored
Warning: card ION_DYNAMICS = 'BFGS' ignored
Warning: card / ignored
Warning: card &CELL ignored
Warning: card CELL_DOFREE = 'ALL' ignored
Warning: card CELL_DYNAMICS = 'BFGS' ignored
Warning: card PRESS = 0.0 ignored
Warning: card PRESS_CONV_THR = 0.5 ignored
Warning: card / ignored

     Current dimensions of program PWSCF are:
     Max number of different atomic species (ntypx) = 10
     Max number of k-points (npk) =  40000
     Max angular momentum in pseudopotentials (lmaxx) =  3
               file C.pbesol-n-kjpaw_psl.1.0.0.UPF: wavefunction(s)  2S 2P renormalized
               file F.pbesol-n-kjpaw_psl.1.0.0.UPF: wavefunction(s)  2S 2P renormalized

     Subspace diagonalization in iterative solution of the eigenvalue problem:
     a serial algorithm will be used


     G-vector sticks info
     --------------------
     sticks:   dense  smooth     PW     G-vecs:    dense   smooth      PW
     Sum         569     285     95                86321    30479    6161



     bravais-lattice index     =            0
     lattice parameter (alat)  =       4.7546  a.u.
     unit-cell volume          =     747.8583 (a.u.)^3
     number of atoms/cell      =            6
     number of atomic types    =            2
     number of electrons       =        30.00
     number of Kohn-Sham states=           19
     kinetic-energy cutoff     =      45.0000  Ry
     charge density cutoff     =     360.0000  Ry
     convergence threshold     =      1.0E-06
     mixing beta               =       0.7000
     number of iterations used =            8  plain     mixing
     Exchange-correlation      = SLA PW PSX PSC ( 1  4 10  8 0 0)

     celldm(1)=   4.754572  celldm(2)=   0.000000  celldm(3)=   0.000000
     celldm(4)=   0.000000  celldm(5)=   0.000000  celldm(6)=   0.000000

     crystal axes: (cart. coord. in units of alat)
               a(1) = (   1.000000  -0.000000   0.000000 )  
               a(2) = (   0.505962   0.876352   0.000000 )  
               a(3) = (   0.000648   0.000380   7.939744 )  

     reciprocal axes: (cart. coord. in units 2 pi/alat)
               b(1) = (  1.000000 -0.577350 -0.000054 )  
               b(2) = (  0.000000  1.141094 -0.000055 )  
               b(3) = ( -0.000000  0.000000  0.125949 )  


     PseudoPot. # 1 for C  read from file:
     .\C.pbesol-n-kjpaw_psl.1.0.0.UPF
     MD5 check sum: f9b2fe17d1f478429498b05d17159f9e
     Pseudo is Projector augmented-wave + core cor, Zval =  4.0
     Generated using "atomic" code by A. Dal Corso v.6.3
     Shape of augmentation charge: PSQ
     Using radial grid of 1073 points,  4 beta functions with: 
                l(1) =   0
                l(2) =   0
                l(3) =   1
                l(4) =   1
     Q(r) pseudized with 0 coefficients 


     PseudoPot. # 2 for F  read from file:
     .\F.pbesol-n-kjpaw_psl.1.0.0.UPF
     MD5 check sum: d939582bcd23f1ece12cfc4fab8d9d36
     Pseudo is Projector augmented-wave + core cor, Zval =  7.0
     Generated using "atomic" code by A. Dal Corso v.6.3
     Shape of augmentation charge: PSQ
     Using radial grid of 1105 points,  4 beta functions with: 
                l(1) =   0
                l(2) =   0
                l(3) =   1
                l(4) =   1
     Q(r) pseudized with 0 coefficients 


     atomic species   valence    mass     pseudopotential
        C              4.00    12.01070     C ( 1.00)
        F              7.00    18.99840     F ( 1.00)

     No symmetry found


                                    s                        frac. trans.

      isym =  1     identity                                     

 cryst.   s( 1) = (     1          0          0      )
                  (     0          1          0      )
                  (     0          0          1      )

 cart.    s( 1) = (  1.0000000 -0.0000000 -0.0000000 )
                  (  0.0000000  1.0000000 -0.0000000 )
                  (  0.0000000  0.0000000  1.0000000 )


   Cartesian axes

     site n.     atom                  positions (alat units)
         1           C   tau(   1) = (   0.0003559   0.0002094   3.9970927  )
         2           C   tau(   2) = (   0.5023439   0.2923269   4.1970087  )
         3           C   tau(   3) = (   1.0043281   0.5844406   5.0145344  )
         4           C   tau(   4) = (   0.5023405   0.2923234   4.8146142  )
         5           F   tau(   5) = (   0.0003488   0.0002044   3.4493346  )
         6           F   tau(   6) = (   1.0043312   0.5844435   5.5622959  )

   Crystallographic axes

     site n.     atom                  positions (cryst. coord.)
         1           C   tau(   1) = (  0.0000192  0.0000206  0.5034284  )
         2           C   tau(   2) = (  0.3333424  0.3333434  0.5286075  )
         3           C   tau(   3) = (  0.6666304  0.6666281  0.6315738  )
         4           C   tau(   4) = (  0.3333076  0.3333056  0.6063941  )
         5           F   tau(   5) = (  0.0000446  0.0000447  0.4344390  )
         6           F   tau(   6) = (  0.6666024  0.6666014  0.7005636  )

     number of k points=    74  Marzari-Vanderbilt smearing, width (Ry)=  0.0200
                       cart. coord. in units 2pi/alat
        k(    1) = (   0.0000000   0.0000000   0.0000000), wk =   0.0138889
        k(    2) = (   0.0000000   0.0950912  -0.0000046), wk =   0.0277778
        k(    3) = (   0.0000000   0.1901824  -0.0000091), wk =   0.0277778
        k(    4) = (   0.0000001   0.2852736  -0.0000137), wk =   0.0277778
        k(    5) = (   0.0000001   0.3803648  -0.0000182), wk =   0.0277778
        k(    6) = (   0.0000001   0.4754560  -0.0000228), wk =   0.0277778
        k(    7) = (  -0.0000001  -0.5705472   0.0000273), wk =   0.0138889
        k(    8) = (   0.0833333  -0.0481125  -0.0000045), wk =   0.0277778
        k(    9) = (   0.0833333   0.0469787  -0.0000091), wk =   0.0277778
        k(   10) = (   0.0833334   0.1420699  -0.0000136), wk =   0.0277778
        k(   11) = (   0.0833334   0.2371611  -0.0000182), wk =   0.0277778
        k(   12) = (   0.0833334   0.3322523  -0.0000227), wk =   0.0277778
        k(   13) = (   0.0833334   0.4273435  -0.0000273), wk =   0.0277778
        k(   14) = (   0.0833332  -0.6186597   0.0000228), wk =   0.0277778
        k(   15) = (   0.0833332  -0.5235685   0.0000183), wk =   0.0277778
        k(   16) = (   0.0833332  -0.4284773   0.0000137), wk =   0.0277778
        k(   17) = (   0.0833333  -0.3333861   0.0000092), wk =   0.0277778
        k(   18) = (   0.0833333  -0.2382949   0.0000046), wk =   0.0277778
        k(   19) = (   0.0833333  -0.1432037   0.0000001), wk =   0.0277778
        k(   20) = (   0.1666666  -0.0962250  -0.0000090), wk =   0.0277778
        k(   21) = (   0.1666667  -0.0011338  -0.0000135), wk =   0.0277778
        k(   22) = (   0.1666667   0.0939574  -0.0000181), wk =   0.0277778
        k(   23) = (   0.1666667   0.1890486  -0.0000227), wk =   0.0277778
        k(   24) = (   0.1666667   0.2841398  -0.0000272), wk =   0.0277778
        k(   25) = (   0.1666667   0.3792310  -0.0000318), wk =   0.0277778
        k(   26) = (   0.1666665  -0.6667722   0.0000183), wk =   0.0277778
        k(   27) = (   0.1666665  -0.5716810   0.0000138), wk =   0.0277778
        k(   28) = (   0.1666666  -0.4765898   0.0000092), wk =   0.0277778
        k(   29) = (   0.1666666  -0.3814986   0.0000047), wk =   0.0277778
        k(   30) = (   0.1666666  -0.2864074   0.0000001), wk =   0.0277778
        k(   31) = (   0.1666666  -0.1913162  -0.0000044), wk =   0.0277778
        k(   32) = (   0.2500000  -0.1443375  -0.0000135), wk =   0.0277778
        k(   33) = (   0.2500000  -0.0492463  -0.0000180), wk =   0.0277778
        k(   34) = (   0.2500000   0.0458449  -0.0000226), wk =   0.0277778
        k(   35) = (   0.2500000   0.1409361  -0.0000272), wk =   0.0277778
        k(   36) = (   0.2500000   0.2360273  -0.0000317), wk =   0.0277778
        k(   37) = (   0.2500001   0.3311184  -0.0000363), wk =   0.0277778
        k(   38) = (   0.2499999  -0.7148847   0.0000138), wk =   0.0277778
        k(   39) = (   0.2499999  -0.6197935   0.0000093), wk =   0.0277778
        k(   40) = (   0.2499999  -0.5247023   0.0000047), wk =   0.0277778
        k(   41) = (   0.2499999  -0.4296111   0.0000002), wk =   0.0277778
        k(   42) = (   0.2499999  -0.3345199  -0.0000044), wk =   0.0277778
        k(   43) = (   0.2500000  -0.2394287  -0.0000089), wk =   0.0277778
        k(   44) = (   0.3333333  -0.1924500  -0.0000180), wk =   0.0277778
        k(   45) = (   0.3333333  -0.0973588  -0.0000225), wk =   0.0277778
        k(   46) = (   0.3333333  -0.0022676  -0.0000271), wk =   0.0277778
        k(   47) = (   0.3333334   0.0928236  -0.0000317), wk =   0.0277778
        k(   48) = (   0.3333334   0.1879147  -0.0000362), wk =   0.0277778
        k(   49) = (   0.3333334   0.2830059  -0.0000408), wk =   0.0277778
        k(   50) = (   0.3333332  -0.7629972   0.0000093), wk =   0.0277778
        k(   51) = (   0.3333332  -0.6679060   0.0000048), wk =   0.0277778
        k(   52) = (   0.3333332  -0.5728148   0.0000002), wk =   0.0277778
        k(   53) = (   0.3333332  -0.4777236  -0.0000043), wk =   0.0277778
        k(   54) = (   0.3333333  -0.3826324  -0.0000089), wk =   0.0277778
        k(   55) = (   0.3333333  -0.2875412  -0.0000134), wk =   0.0277778
        k(   56) = (   0.4166666  -0.2405625  -0.0000225), wk =   0.0277778
        k(   57) = (   0.4166666  -0.1454713  -0.0000270), wk =   0.0277778
        k(   58) = (   0.4166667  -0.0503801  -0.0000316), wk =   0.0277778
        k(   59) = (   0.4166667   0.0447110  -0.0000362), wk =   0.0277778
        k(   60) = (   0.4166667   0.1398022  -0.0000407), wk =   0.0277778
        k(   61) = (   0.4166667   0.2348934  -0.0000453), wk =   0.0277778
        k(   62) = (   0.4166665  -0.8111097   0.0000048), wk =   0.0277778
        k(   63) = (   0.4166665  -0.7160185   0.0000003), wk =   0.0277778
        k(   64) = (   0.4166665  -0.6209273  -0.0000043), wk =   0.0277778
        k(   65) = (   0.4166666  -0.5258361  -0.0000088), wk =   0.0277778
        k(   66) = (   0.4166666  -0.4307449  -0.0000134), wk =   0.0277778
        k(   67) = (   0.4166666  -0.3356537  -0.0000179), wk =   0.0277778
        k(   68) = (  -0.4999999   0.2886750   0.0000270), wk =   0.0138889
        k(   69) = (  -0.4999999   0.3837662   0.0000224), wk =   0.0277778
        k(   70) = (  -0.4999999   0.4788574   0.0000179), wk =   0.0277778
        k(   71) = (  -0.4999999   0.5739486   0.0000133), wk =   0.0277778
        k(   72) = (  -0.4999999   0.6690398   0.0000088), wk =   0.0277778
        k(   73) = (  -0.4999998   0.7641310   0.0000042), wk =   0.0277778
        k(   74) = (  -0.5000001  -0.2818721   0.0000543), wk =   0.0138889

                       cryst. coord.
        k(    1) = (   0.0000000   0.0000000   0.0000000), wk =   0.0138889
        k(    2) = (   0.0000000   0.0833333  -0.0000000), wk =   0.0277778
        k(    3) = (   0.0000000   0.1666667  -0.0000000), wk =   0.0277778
        k(    4) = (   0.0000000   0.2500000  -0.0000000), wk =   0.0277778
        k(    5) = (   0.0000000   0.3333333  -0.0000000), wk =   0.0277778
        k(    6) = (   0.0000000   0.4166667  -0.0000000), wk =   0.0277778
        k(    7) = (  -0.0000000  -0.5000000   0.0000000), wk =   0.0138889
        k(    8) = (   0.0833333  -0.0000000  -0.0000000), wk =   0.0277778
        k(    9) = (   0.0833333   0.0833333  -0.0000000), wk =   0.0277778
        k(   10) = (   0.0833333   0.1666667  -0.0000000), wk =   0.0277778
        k(   11) = (   0.0833333   0.2500000  -0.0000000), wk =   0.0277778
        k(   12) = (   0.0833333   0.3333333  -0.0000000), wk =   0.0277778
        k(   13) = (   0.0833333   0.4166667  -0.0000000), wk =   0.0277778
        k(   14) = (   0.0833333  -0.5000000   0.0000000), wk =   0.0277778
        k(   15) = (   0.0833333  -0.4166667   0.0000000), wk =   0.0277778
        k(   16) = (   0.0833333  -0.3333333   0.0000000), wk =   0.0277778
        k(   17) = (   0.0833333  -0.2500000  -0.0000000), wk =   0.0277778
        k(   18) = (   0.0833333  -0.1666667  -0.0000000), wk =   0.0277778
        k(   19) = (   0.0833333  -0.0833333  -0.0000000), wk =   0.0277778
        k(   20) = (   0.1666667  -0.0000000  -0.0000000), wk =   0.0277778
        k(   21) = (   0.1666667   0.0833333  -0.0000000), wk =   0.0277778
        k(   22) = (   0.1666667   0.1666667  -0.0000000), wk =   0.0277778
        k(   23) = (   0.1666667   0.2500000  -0.0000000), wk =   0.0277778
        k(   24) = (   0.1666667   0.3333333  -0.0000000), wk =   0.0277778
        k(   25) = (   0.1666667   0.4166667  -0.0000000), wk =   0.0277778
        k(   26) = (   0.1666667  -0.5000000  -0.0000000), wk =   0.0277778
        k(   27) = (   0.1666667  -0.4166667   0.0000000), wk =   0.0277778
        k(   28) = (   0.1666667  -0.3333333  -0.0000000), wk =   0.0277778
        k(   29) = (   0.1666667  -0.2500000   0.0000000), wk =   0.0277778
        k(   30) = (   0.1666667  -0.1666667  -0.0000000), wk =   0.0277778
        k(   31) = (   0.1666667  -0.0833333  -0.0000000), wk =   0.0277778
        k(   32) = (   0.2500000   0.0000000  -0.0000000), wk =   0.0277778
        k(   33) = (   0.2500000   0.0833333  -0.0000000), wk =   0.0277778
        k(   34) = (   0.2500000   0.1666667  -0.0000000), wk =   0.0277778
        k(   35) = (   0.2500000   0.2500000  -0.0000000), wk =   0.0277778
        k(   36) = (   0.2500000   0.3333333  -0.0000000), wk =   0.0277778
        k(   37) = (   0.2500000   0.4166667  -0.0000000), wk =   0.0277778
        k(   38) = (   0.2500000  -0.5000000   0.0000000), wk =   0.0277778
        k(   39) = (   0.2500000  -0.4166667   0.0000000), wk =   0.0277778
        k(   40) = (   0.2500000  -0.3333333  -0.0000000), wk =   0.0277778
        k(   41) = (   0.2500000  -0.2500000  -0.0000000), wk =   0.0277778
        k(   42) = (   0.2500000  -0.1666667  -0.0000000), wk =   0.0277778
        k(   43) = (   0.2500000  -0.0833333  -0.0000000), wk =   0.0277778
        k(   44) = (   0.3333333  -0.0000000  -0.0000000), wk =   0.0277778
        k(   45) = (   0.3333333   0.0833333  -0.0000000), wk =   0.0277778
        k(   46) = (   0.3333333   0.1666667  -0.0000000), wk =   0.0277778
        k(   47) = (   0.3333333   0.2500000  -0.0000000), wk =   0.0277778
        k(   48) = (   0.3333333   0.3333333  -0.0000000), wk =   0.0277778
        k(   49) = (   0.3333333   0.4166667  -0.0000000), wk =   0.0277778
        k(   50) = (   0.3333333  -0.5000000   0.0000000), wk =   0.0277778
        k(   51) = (   0.3333333  -0.4166667  -0.0000000), wk =   0.0277778
        k(   52) = (   0.3333333  -0.3333333  -0.0000000), wk =   0.0277778
        k(   53) = (   0.3333333  -0.2500000  -0.0000000), wk =   0.0277778
        k(   54) = (   0.3333333  -0.1666667  -0.0000000), wk =   0.0277778
        k(   55) = (   0.3333333  -0.0833333  -0.0000000), wk =   0.0277778
        k(   56) = (   0.4166667   0.0000000  -0.0000000), wk =   0.0277778
        k(   57) = (   0.4166667   0.0833333  -0.0000000), wk =   0.0277778
        k(   58) = (   0.4166667   0.1666667   0.0000000), wk =   0.0277778
        k(   59) = (   0.4166667   0.2500000  -0.0000000), wk =   0.0277778
        k(   60) = (   0.4166667   0.3333333   0.0000000), wk =   0.0277778
        k(   61) = (   0.4166667   0.4166667   0.0000000), wk =   0.0277778
        k(   62) = (   0.4166667  -0.5000000   0.0000000), wk =   0.0277778
        k(   63) = (   0.4166667  -0.4166667  -0.0000000), wk =   0.0277778
        k(   64) = (   0.4166667  -0.3333333  -0.0000000), wk =   0.0277778
        k(   65) = (   0.4166667  -0.2500000  -0.0000000), wk =   0.0277778
        k(   66) = (   0.4166667  -0.1666667  -0.0000000), wk =   0.0277778
        k(   67) = (   0.4166667  -0.0833333  -0.0000000), wk =   0.0277778
        k(   68) = (  -0.5000000   0.0000000   0.0000000), wk =   0.0138889
        k(   69) = (  -0.5000000   0.0833333   0.0000000), wk =   0.0277778
        k(   70) = (  -0.5000000   0.1666667   0.0000000), wk =   0.0277778
        k(   71) = (  -0.5000000   0.2500000   0.0000000), wk =   0.0277778
        k(   72) = (  -0.5000000   0.3333333   0.0000000), wk =   0.0277778
        k(   73) = (  -0.5000000   0.4166667   0.0000000), wk =   0.0277778
        k(   74) = (  -0.5000000  -0.5000000   0.0000000), wk =   0.0138889

     Dense  grid:    86321 G-vectors     FFT dimensions: (  30,  30, 240)

     Smooth grid:    30479 G-vectors     FFT dimensions: (  24,  24, 162)

     Dynamical RAM for                 wfc:       1.11 MB

     Dynamical RAM for     wfc (w. buffer):      82.89 MB

     Dynamical RAM for           str. fact:       2.63 MB

     Dynamical RAM for           local pot:       0.00 MB

     Dynamical RAM for          nlocal pot:       2.79 MB

     Dynamical RAM for                qrad:       0.66 MB

     Dynamical RAM for          rho,v,vnew:       8.90 MB

     Dynamical RAM for               rhoin:       2.97 MB

     Dynamical RAM for            rho*nmix:      21.07 MB

     Dynamical RAM for           G-vectors:       5.17 MB

     Dynamical RAM for          h,s,v(r/c):       0.26 MB

     Dynamical RAM for          <psi|beta>:       0.01 MB

     Dynamical RAM for                 psi:       4.42 MB

     Dynamical RAM for                hpsi:       4.42 MB

     Dynamical RAM for                spsi:       4.42 MB

     Dynamical RAM for      wfcinit/wfcrot:       2.81 MB

     Dynamical RAM for           addusdens:      61.91 MB

     Dynamical RAM for          addusforce:      78.38 MB

     Dynamical RAM for         addusstress:      65.86 MB

     Estimated static dynamical RAM per process >     139.27 MB

     Estimated max dynamical RAM per process >     217.65 MB

     Check: negative core charge=   -0.000006

     Initial potential from superposition of free atoms

     starting charge   29.99983, renormalised to   30.00000

     negative rho (up, down):  5.208E-04 0.000E+00
     Starting wfcs are   24 randomized atomic wfcs
     Checking if some PAW data can be deallocated... 

     total cpu time spent up to now is       10.2 secs

     Self-consistent Calculation

     iteration #  1     ecut=    45.00 Ry     beta= 0.70
     Davidson diagonalization with overlap
     ethr =  1.00E-02,  avg # of iterations =  2.8

     negative rho (up, down):  6.147E-04 0.000E+00

     total cpu time spent up to now is       18.4 secs

     total energy              =    -189.88120851 Ry
     Harris-Foulkes estimate   =    -190.06390174 Ry
     estimated scf accuracy    <       0.33517622 Ry

     iteration #  2     ecut=    45.00 Ry     beta= 0.70
     Davidson diagonalization with overlap
     ethr =  1.12E-03,  avg # of iterations =  2.3

     negative rho (up, down):  6.408E-04 0.000E+00

     total cpu time spent up to now is       26.1 secs

     total energy              =    -189.91198118 Ry
     Harris-Foulkes estimate   =    -189.96402952 Ry
     estimated scf accuracy    <       0.08290299 Ry

     iteration #  3     ecut=    45.00 Ry     beta= 0.70
     Davidson diagonalization with overlap
     ethr =  2.76E-04,  avg # of iterations =  5.3

     negative rho (up, down):  6.546E-04 0.000E+00

     total cpu time spent up to now is       34.7 secs

     total energy              =    -189.93062297 Ry
     Harris-Foulkes estimate   =    -189.94938496 Ry
     estimated scf accuracy    <       0.03627871 Ry

     iteration #  4     ecut=    45.00 Ry     beta= 0.70
     Davidson diagonalization with overlap
     ethr =  1.21E-04,  avg # of iterations =  4.4

     negative rho (up, down):  6.554E-04 0.000E+00

     total cpu time spent up to now is       42.3 secs

     total energy              =    -189.93844361 Ry
     Harris-Foulkes estimate   =    -189.94274803 Ry
     estimated scf accuracy    <       0.00997866 Ry

     iteration #  5     ecut=    45.00 Ry     beta= 0.70
     Davidson diagonalization with overlap
     ethr =  3.33E-05,  avg # of iterations =  3.8

     negative rho (up, down):  6.590E-04 0.000E+00

     total cpu time spent up to now is       49.6 secs

     total energy              =    -189.94036643 Ry
     Harris-Foulkes estimate   =    -189.94038648 Ry
     estimated scf accuracy    <       0.00006187 Ry

     iteration #  6     ecut=    45.00 Ry     beta= 0.70
     Davidson diagonalization with overlap
     ethr =  2.06E-07,  avg # of iterations =  4.6

     negative rho (up, down):  6.604E-04 0.000E+00

     total cpu time spent up to now is       59.3 secs

     total energy              =    -189.94041601 Ry
     Harris-Foulkes estimate   =    -189.94042552 Ry
     estimated scf accuracy    <       0.00002258 Ry

     iteration #  7     ecut=    45.00 Ry     beta= 0.70
     Davidson diagonalization with overlap
     ethr =  7.53E-08,  avg # of iterations =  2.0

     negative rho (up, down):  6.609E-04 0.000E+00

     total cpu time spent up to now is       65.5 secs

     total energy              =    -189.94041720 Ry
     Harris-Foulkes estimate   =    -189.94041829 Ry
     estimated scf accuracy    <       0.00000233 Ry

     iteration #  8     ecut=    45.00 Ry     beta= 0.70
     Davidson diagonalization with overlap
     ethr =  7.77E-09,  avg # of iterations =  3.0

     negative rho (up, down):  6.611E-04 0.000E+00

     total cpu time spent up to now is       73.5 secs

     End of self-consistent calculation

          k = 0.0000 0.0000 0.0000 (  3803 PWs)   bands (ev):

   -27.2451 -27.1902 -21.6455 -18.2291 -12.1513  -9.3403  -6.1528  -5.6027
    -5.5320  -5.3299  -5.2632  -3.0896  -3.0190  -1.8657  -1.8074   2.0190
     4.7490   4.8732   5.0919

     occupation numbers 
     1.0000   1.0000   1.0000   1.0000   1.0000   1.0000   1.0000   1.0000
     1.0000   1.0000   1.0000   1.0000   1.0000   1.0000   1.0000   0.0000
     0.0000   0.0000   0.0000

          k = 0.0000 0.0951-0.0000 (  3761 PWs)   bands (ev):

   -27.1779 -27.1263 -21.4979 -18.1033 -12.0527  -9.3092  -6.5003  -5.9487
    -5.7317  -5.6358  -5.3737  -3.5413  -3.1978  -2.4062  -1.9933   2.3764
     4.6049   5.3844   5.4725

     occupation numbers 
     1.0000   1.0000   1.0000   1.0000   1.0000   1.0000   1.0000   1.0000
     1.0000   1.0000   1.0000   1.0000   1.0000   1.0000   1.0000   0.0000
     0.0000   0.0000   0.0000

          k = 0.0000 0.1902-0.0000 (  3775 PWs)   bands (ev):

   -26.9900 -26.9478 -21.0558 -17.7281 -11.7748  -9.2565  -7.7440  -7.1044
    -6.2410  -6.0979  -5.6779  -4.2657  -3.5496  -3.5430  -2.4234   2.9501
     4.3811   6.1435   6.2232

     occupation numbers 
     1.0000   1.0000   1.0000   1.0000   1.0000   1.0000   1.0000   1.0000
     1.0000   1.0000   1.0000   1.0000   1.0000   1.0000   1.0000   0.0000
     0.0000   0.0000   0.0000

          k = 0.0000 0.2853-0.0000 (  3786 PWs)   bands (ev):

   -26.7228 -26.6930 -20.3221 -17.1097 -11.4154  -9.8527  -9.1723  -8.3918
    -6.8802  -6.7258  -6.0998  -4.9611  -4.5266  -3.8677  -2.8770   3.1722
     4.3607   6.3020   7.1335

     occupation numbers 
     1.0000   1.0000   1.0000   1.0000   1.0000   1.0000   1.0000   1.0000
     1.0000   1.0000   1.0000   1.0000   1.0000   1.0000   1.0000   0.0000
     0.0000   0.0000   0.0000

          k = 0.0000 0.3804-0.0000 (  3805 PWs)   bands (ev):

   -26.4419 -26.4244 -19.3070 -16.2649 -12.1939 -10.8335 -10.2267  -8.8131
    -7.4536  -7.3243  -6.5145  -5.8882  -4.9094  -4.1107  -3.2287   3.1027
     4.5151   5.9722   7.5892

     occupation numbers 
     1.0000   1.0000   1.0000   1.0000   1.0000   1.0000   1.0000   1.0000
     1.0000   1.0000   1.0000   1.0000   1.0000   1.0000   1.0000   0.0000
     0.0000   0.0000   0.0000

          k = 0.0000 0.4755-0.0000 (  3814 PWs)   bands (ev):

   -26.2262 -26.2182 -18.0578 -15.3004 -14.0059 -12.1408 -10.0585  -9.0081
    -7.8369  -7.6585  -6.8088  -6.5457  -5.1351  -4.2632  -3.4437   3.1389
     4.3239   5.5245   7.7809

     occupation numbers 
     1.0000   1.0000   1.0000   1.0000   1.0000   1.0000   1.0000   1.0000
     1.0000   1.0000   1.0000   1.0000   1.0000   1.0000   1.0000   0.0000
     0.0000   0.0000   0.0000

          k =-0.0000-0.5705 0.0000 (  3810 PWs)   bands (ev):

   -26.1443 -26.1412 -17.0829 -15.5334 -14.0679 -13.2444  -9.8033  -9.1827
    -7.9704  -7.7391  -6.9142  -6.7795  -5.2235  -4.3154  -3.5157   3.2726
     3.9902   5.4588   8.1031

     occupation numbers 
     1.0000   1.0000   1.0000   1.0000   1.0000   1.0000   1.0000   1.0000
     1.0000   1.0000   1.0000   1.0000   1.0000   1.0000   1.0000   0.0000
     0.0000   0.0000   0.0000

          k = 0.0833-0.0481-0.0000 (  3765 PWs)   bands (ev):

   -27.1753 -27.1238 -21.4940 -18.0998 -12.0492  -9.3074  -6.4735  -5.8973
    -5.8114  -5.5616  -5.4415  -3.4747  -3.2707  -2.3482  -2.0582   2.3593
     4.5943   5.2817   5.4663

     occupation numbers 
     1.0000   1.0000   1.0000   1.0000   1.0000   1.0000   1.0000   1.0000
     1.0000   1.0000   1.0000   1.0000   1.0000   1.0000   1.0000   0.0000
     0.0000   0.0000   0.0000

          k = 0.0833 0.0470-0.0000 (  3771 PWs)   bands (ev):

   -27.1765 -27.1250 -21.4959 -18.1015 -12.0509  -9.3083  -6.4851  -5.9235
    -5.7755  -5.5949  -5.4083  -3.5069  -3.2359  -2.3749  -2.0281   2.3669
     4.5998   5.3168   5.4738

     occupation numbers 
     1.0000   1.0000   1.0000   1.0000   1.0000   1.0000   1.0000   1.0000
     1.0000   1.0000   1.0000   1.0000   1.0000   1.0000   1.0000   0.0000
     0.0000   0.0000   0.0000

          k = 0.0833 0.1421-0.0000 (  3740 PWs)   bands (ev):

   -27.0501 -27.0049 -21.2029 -17.8526 -11.8636  -9.2631  -7.1984  -6.6290
    -6.3507  -5.9636  -5.5795  -3.9395  -3.7343  -2.9601  -2.4936   2.8894
     4.6307   5.7447   5.9557

     occupation numbers 
     1.0000   1.0000   1.0000   1.0000   1.0000   1.0000   1.0000   1.0000
     1.0000   1.0000   1.0000   1.0000   1.0000   1.0000   1.0000   0.0000
     0.0000   0.0000   0.0000

          k = 0.0833 0.2372-0.0000 (  3782 PWs)   bands (ev):

   -26.8229 -26.7886 -20.6166 -17.3570 -11.5316  -9.3104  -8.6445  -7.8257
    -7.0845  -6.5951  -5.9258  -4.6355  -4.2570  -3.7051  -3.0262   3.4951
     4.5787   6.4180   6.8205

     occupation numbers 
     1.0000   1.0000   1.0000   1.0000   1.0000   1.0000   1.0000   1.0000
     1.0000   1.0000   1.0000   1.0000   1.0000   1.0000   1.0000   0.0000
     0.0000   0.0000   0.0000

          k = 0.0833 0.3323-0.0000 (  3808 PWs)   bands (ev):

   -26.5480 -26.5259 -19.7424 -16.6242 -11.4189 -10.5169  -9.6804  -8.6771
    -7.7633  -7.2061  -6.4723  -5.4722  -4.7389  -4.1252  -3.4066   3.7099
     4.6720   6.6603   7.5167

     occupation numbers 
     1.0000   1.0000   1.0000   1.0000   1.0000   1.0000   1.0000   1.0000
     1.0000   1.0000   1.0000   1.0000   1.0000   1.0000   1.0000   0.0000
     0.0000   0.0000   0.0000

          k = 0.0833 0.4273-0.0000 (  3813 PWs)   bands (ev):

   -26.2976 -26.2860 -18.6015 -15.6879 -13.0468 -11.3518 -10.1784  -8.9228
    -8.2261  -7.5996  -7.0087  -6.1959  -5.0974  -4.3103  -3.6643   3.7090
     4.7654   6.2090   7.8860

     occupation numbers 
     1.0000   1.0000   1.0000   1.0000   1.0000   1.0000   1.0000   1.0000
     1.0000   1.0000   1.0000   1.0000   1.0000   1.0000   1.0000   0.0000
     0.0000   0.0000   0.0000

          k = 0.0833-0.6187 0.0000 (  3825 PWs)   bands (ev):

   -26.1461 -26.1417 -17.3275 -15.1416 -14.2134 -12.7623  -9.8401  -9.1420
    -8.4724  -7.7336  -7.3214  -6.6090  -5.2916  -4.3982  -3.7958   3.8949
     4.3608   6.0268   8.0827

     occupation numbers 
     1.0000   1.0000   1.0000   1.0000   1.0000   1.0000   1.0000   1.0000
     1.0000   1.0000   1.0000   1.0000   1.0000   1.0000   1.0000   0.0000
     0.0000   0.0000   0.0000

          k = 0.0833-0.5236 0.0000 (  3825 PWs)   bands (ev):

   -26.1445 -26.1401 -17.3123 -15.1512 -14.2070 -12.7828  -9.8333  -9.1518
    -8.4580  -7.7475  -7.3030  -6.6131  -5.2924  -4.3969  -3.7910   3.8922
     4.3510   6.0205   8.0759

     occupation numbers 
     1.0000   1.0000   1.0000   1.0000   1.0000   1.0000   1.0000   1.0000
     1.0000   1.0000   1.0000   1.0000   1.0000   1.0000   1.0000   0.0000
     0.0000   0.0000   0.0000

          k = 0.0833-0.4285 0.0000 (  3823 PWs)   bands (ev):

   -26.2934 -26.2818 -18.5850 -15.6738 -13.0737 -11.3764 -10.1746  -8.9308
    -8.1942  -7.6237  -6.9704  -6.2081  -5.1007  -4.3055  -3.6513   3.6928
     4.7499   6.1902   7.8658

     occupation numbers 
     1.0000   1.0000   1.0000   1.0000   1.0000   1.0000   1.0000   1.0000
     1.0000   1.0000   1.0000   1.0000   1.0000   1.0000   1.0000   0.0000
     0.0000   0.0000   0.0000

          k = 0.0833-0.3334 0.0000 (  3808 PWs)   bands (ev):

   -26.5426 -26.5205 -19.7291 -16.6125 -11.4273 -10.5333  -9.7053  -8.6813
    -7.7336  -7.2160  -6.4311  -5.4884  -4.7502  -4.1150  -3.3879   3.6856
     4.6497   6.6442   7.4764

     occupation numbers 
     1.0000   1.0000   1.0000   1.0000   1.0000   1.0000   1.0000   1.0000
     1.0000   1.0000   1.0000   1.0000   1.0000   1.0000   1.0000   0.0000
     0.0000   0.0000   0.0000

          k = 0.0833-0.2383 0.0000 (  3782 PWs)   bands (ev):

   -26.8178 -26.7836 -20.6070 -17.3485 -11.5245  -9.3137  -8.6738  -7.8350
    -7.0693  -6.5945  -5.8909  -4.6485  -4.2663  -3.7056  -3.0043   3.4725
     4.5412   6.4068   6.8297

     occupation numbers 
     1.0000   1.0000   1.0000   1.0000   1.0000   1.0000   1.0000   1.0000
     1.0000   1.0000   1.0000   1.0000   1.0000   1.0000   1.0000   0.0000
     0.0000   0.0000   0.0000

          k = 0.0833-0.1432 0.0000 (  3759 PWs)   bands (ev):

   -27.0465 -27.0014 -21.1971 -17.8475 -11.8587  -9.2611  -7.1990  -6.6190
    -6.3593  -5.9763  -5.5609  -3.9446  -3.7292  -2.9691  -2.4899   2.8679
     4.5966   5.6997   5.9656

     occupation numbers 
     1.0000   1.0000   1.0000   1.0000   1.0000   1.0000   1.0000   1.0000
     1.0000   1.0000   1.0000   1.0000   1.0000   1.0000   1.0000   0.0000
     0.0000   0.0000   0.0000

          k = 0.1667-0.0962-0.0000 (  3784 PWs)   bands (ev):

   -26.9801 -26.9381 -21.0401 -17.7138 -11.7606  -9.2492  -7.6264  -7.0555
    -6.3672  -6.0435  -5.7754  -4.2102  -3.6369  -3.4927  -2.5174   2.8904
     4.3241   6.0294   6.1617

     occupation numbers 
     1.0000   1.0000   1.0000   1.0000   1.0000   1.0000   1.0000   1.0000
     1.0000   1.0000   1.0000   1.0000   1.0000   1.0000   1.0000   0.0000
     0.0000   0.0000   0.0000

          k = 0.1667-0.0011-0.0000 (  3763 PWs)   bands (ev):

   -27.0428 -26.9978 -21.1912 -17.8421 -11.8536  -9.2588  -7.1897  -6.6010
    -6.3760  -5.9887  -5.5501  -3.9360  -3.7373  -2.9716  -2.4955   2.8430
     4.5546   5.6628   5.9748

     occupation numbers 
     1.0000   1.0000   1.0000   1.0000   1.0000   1.0000   1.0000   1.0000
     1.0000   1.0000   1.0000   1.0000   1.0000   1.0000   1.0000   0.0000
     0.0000   0.0000   0.0000

          k = 0.1667 0.0940-0.0000 (  3783 PWs)   bands (ev):

   -26.9849 -26.9428 -21.0478 -17.7208 -11.7676  -9.2526  -7.6821  -7.0794
    -6.3060  -6.0703  -5.7279  -4.2367  -3.5943  -3.5174  -2.4726   2.9199
     4.3527   6.1055   6.1531

     occupation numbers 
     1.0000   1.0000   1.0000   1.0000   1.0000   1.0000   1.0000   1.0000
     1.0000   1.0000   1.0000   1.0000   1.0000   1.0000   1.0000   0.0000
     0.0000   0.0000   0.0000

          k = 0.1667 0.1890-0.0000 (  3786 PWs)   bands (ev):

   -26.8192 -26.7849 -20.6105 -17.3514 -11.5254  -9.3023  -8.5805  -7.8087
    -7.1397  -6.6073  -5.9565  -4.6111  -4.2656  -3.7065  -3.0764   3.4665
     4.5784   6.3568   6.7985

     occupation numbers 
     1.0000   1.0000   1.0000   1.0000   1.0000   1.0000   1.0000   1.0000
     1.0000   1.0000   1.0000   1.0000   1.0000   1.0000   1.0000   0.0000
     0.0000   0.0000   0.0000

          k = 0.1667 0.2841-0.0000 (  3819 PWs)   bands (ev):

   -26.5835 -26.5596 -19.8826 -16.7396 -11.2650  -9.7379  -9.6784  -8.4697
    -8.1287  -7.5890  -6.3583  -5.3652  -4.5261  -4.0433  -3.8604   4.3714
     4.7745   6.8654   7.8766

     occupation numbers 
     1.0000   1.0000   1.0000   1.0000   1.0000   1.0000   1.0000   1.0000
     1.0000   1.0000   1.0000   1.0000   1.0000   1.0000   1.0000   0.0000
     0.0000   0.0000   0.0000

          k = 0.1667 0.3792-0.0000 (  3833 PWs)   bands (ev):

   -26.3370 -26.3231 -18.8758 -15.9013 -11.9842 -10.8242 -10.0721  -9.1053
    -8.7808  -8.1433  -6.9791  -5.9639  -4.9694  -4.4157  -4.1778   4.6179
     5.2054   7.3135   7.8757

     occupation numbers 
     1.0000   1.0000   1.0000   1.0000   1.0000   1.0000   1.0000   1.0000
     1.0000   1.0000   1.0000   1.0000   1.0000   1.0000   1.0000   0.0000
     0.0000   0.0000   0.0000

          k = 0.1667-0.6668 0.0000 (  3831 PWs)   bands (ev):

   -26.1482 -26.1418 -17.6411 -14.9369 -13.6349 -11.9708  -9.9713  -9.6045
    -9.0527  -8.1974  -7.5839  -6.3332  -5.4142  -4.5169  -4.3777   4.4743
     5.6449   7.1709   7.7476

     occupation numbers 
     1.0000   1.0000   1.0000   1.0000   1.0000   1.0000   1.0000   1.0000
     1.0000   1.0000   1.0000   1.0000   1.0000   1.0000   1.0000   0.0000
     0.0000   0.0000   0.0000

          k = 0.1667-0.5717 0.0000 (  3833 PWs)   bands (ev):

   -26.0748 -26.0723 -16.6713 -15.1195 -13.6643 -13.0423 -10.1133  -9.3752
    -9.2301  -8.2019  -7.8381  -6.4719  -5.5736  -4.5246  -4.4677   4.4239
     5.6829   7.1992   7.7072

     occupation numbers 
     1.0000   1.0000   1.0000   1.0000   1.0000   1.0000   1.0000   1.0000
     1.0000   1.0000   1.0000   1.0000   1.0000   1.0000   1.0000   0.0000
     0.0000   0.0000   0.0000

          k = 0.1667-0.4766 0.0000 (  3829 PWs)   bands (ev):

   -26.1423 -26.1361 -17.6060 -14.9126 -13.6755 -12.0207  -9.9468  -9.6000
    -9.0442  -8.2122  -7.5523  -6.3540  -5.4163  -4.5280  -4.3527   4.4648
     5.6441   7.1353   7.7588

     occupation numbers 
     1.0000   1.0000   1.0000   1.0000   1.0000   1.0000   1.0000   1.0000
     1.0000   1.0000   1.0000   1.0000   1.0000   1.0000   1.0000   0.0000
     0.0000   0.0000   0.0000

          k = 0.1667-0.3815 0.0000 (  3829 PWs)   bands (ev):

   -26.3274 -26.3136 -18.8455 -15.8743 -12.0309 -10.8552 -10.0809  -9.0938
    -8.7450  -8.1546  -6.9443  -5.9905  -4.9867  -4.4157  -4.1517   4.6014
     5.1884   7.2964   7.8341

     occupation numbers 
     1.0000   1.0000   1.0000   1.0000   1.0000   1.0000   1.0000   1.0000
     1.0000   1.0000   1.0000   1.0000   1.0000   1.0000   1.0000   0.0000
     0.0000   0.0000   0.0000

          k = 0.1667-0.2864 0.0000 (  3815 PWs)   bands (ev):

   -26.5730 -26.5492 -19.8596 -16.7189 -11.2531  -9.7722  -9.6939  -8.4485
    -8.1378  -7.5881  -6.3275  -5.3835  -4.5474  -4.0489  -3.8421   4.3373
     4.7393   6.8086   7.8092

     occupation numbers 
     1.0000   1.0000   1.0000   1.0000   1.0000   1.0000   1.0000   1.0000
     1.0000   1.0000   1.0000   1.0000   1.0000   1.0000   1.0000   0.0000
     0.0000   0.0000   0.0000

          k = 0.1667-0.1913-0.0000 (  3787 PWs)   bands (ev):

   -26.8105 -26.7764 -20.5951 -17.3375 -11.5124  -9.2979  -8.5529  -7.7988
    -7.1757  -6.6222  -5.9481  -4.6015  -4.2833  -3.7088  -3.1007   3.4112
     4.5402   6.2899   6.7323

     occupation numbers 
     1.0000   1.0000   1.0000   1.0000   1.0000   1.0000   1.0000   1.0000
     1.0000   1.0000   1.0000   1.0000   1.0000   1.0000   1.0000   0.0000
     0.0000   0.0000   0.0000

          k = 0.2500-0.1443-0.0000 (  3808 PWs)   bands (ev):

   -26.7023 -26.6729 -20.2863 -17.0767 -11.3777  -9.7592  -9.0920  -8.3398
    -7.0558  -6.6975  -6.2364  -4.8967  -4.5148  -3.9709  -2.9933   2.9921
     4.3447   6.0523   7.1232

     occupation numbers 
     1.0000   1.0000   1.0000   1.0000   1.0000   1.0000   1.0000   1.0000
     1.0000   1.0000   1.0000   1.0000   1.0000   1.0000   1.0000   0.0000
     0.0000   0.0000   0.0000

          k = 0.2500-0.0492-0.0000 (  3789 PWs)   bands (ev):

   -26.8051 -26.7711 -20.5853 -17.3286 -11.5047  -9.3001  -8.5806  -7.8038
    -7.1615  -6.6222  -5.9162  -4.6131  -4.2909  -3.7138  -3.0790   3.3837
     4.4979   6.2941   6.6737

     occupation numbers 
     1.0000   1.0000   1.0000   1.0000   1.0000   1.0000   1.0000   1.0000
     1.0000   1.0000   1.0000   1.0000   1.0000   1.0000   1.0000   0.0000
     0.0000   0.0000   0.0000

          k = 0.2500 0.0458-0.0000 (  3784 PWs)   bands (ev):

   -26.8087 -26.7746 -20.5911 -17.3340 -11.5106  -9.3077  -8.6381  -7.8231
    -7.1095  -6.6073  -5.8893  -4.6360  -4.2821  -3.7122  -3.0325   3.4166
     4.4983   6.3502   6.7388

     occupation numbers 
     1.0000   1.0000   1.0000   1.0000   1.0000   1.0000   1.0000   1.0000
     1.0000   1.0000   1.0000   1.0000   1.0000   1.0000   1.0000   0.0000
     0.0000   0.0000   0.0000

          k = 0.2500 0.1409-0.0000 (  3805 PWs)   bands (ev):

   -26.7123 -26.6827 -20.3040 -17.0929 -11.3959  -9.8038  -9.1323  -8.3655
    -6.9694  -6.7115  -6.1687  -4.9285  -4.5202  -3.9208  -2.9366   3.0835
     4.3543   6.1741   7.1296

     occupation numbers 
     1.0000   1.0000   1.0000   1.0000   1.0000   1.0000   1.0000   1.0000
     1.0000   1.0000   1.0000   1.0000   1.0000   1.0000   1.0000   0.0000
     0.0000   0.0000   0.0000

          k = 0.2500 0.2360-0.0000 (  3818 PWs)   bands (ev):

   -26.5388 -26.5167 -19.7259 -16.6084 -11.3792 -10.4660  -9.6463  -8.6558
    -7.8577  -7.2238  -6.5312  -5.4510  -4.7293  -4.1653  -3.4675   3.6186
     4.7097   6.5165   7.4645

     occupation numbers 
     1.0000   1.0000   1.0000   1.0000   1.0000   1.0000   1.0000   1.0000
     1.0000   1.0000   1.0000   1.0000   1.0000   1.0000   1.0000   0.0000
     0.0000   0.0000   0.0000

          k = 0.2500 0.3311-0.0000 (  3841 PWs)   bands (ev):

   -26.3316 -26.3177 -18.8650 -15.8899 -11.9343 -10.8023 -10.0728  -9.1304
    -8.8013  -8.1727  -6.9961  -5.9559  -4.9622  -4.4324  -4.2119   4.5811
     5.2297   7.2872   7.7176

     occupation numbers 
     1.0000   1.0000   1.0000   1.0000   1.0000   1.0000   1.0000   1.0000
     1.0000   1.0000   1.0000   1.0000   1.0000   1.0000   1.0000   0.0000
     0.0000   0.0000   0.0000

          k = 0.2500-0.7149 0.0000 (  3840 PWs)   bands (ev):

   -26.1456 -26.1384 -17.7502 -14.9716 -12.8167 -11.8319  -9.9961  -9.9619
    -9.5471  -8.4305  -7.5479  -6.2261  -5.2701  -4.9508  -4.4818   4.7731
     6.0244   6.9977   9.3309

     occupation numbers 
     1.0000   1.0000   1.0000   1.0000   1.0000   1.0000   1.0000   1.0000
     1.0000   1.0000   1.0000   1.0000   1.0000   1.0000   1.0000   0.0000
     0.0000   0.0000   0.0000

          k = 0.2500-0.6198 0.0000 (  3813 PWs)   bands (ev):

   -26.0334 -26.0306 -16.5313 -14.3572 -13.6477 -12.6947 -10.9652 -10.2191
    -9.1362  -8.5033  -8.0327  -6.2115  -5.6960  -5.1763  -4.5676   4.7979
     5.9284   7.6914   8.8513

     occupation numbers 
     1.0000   1.0000   1.0000   1.0000   1.0000   1.0000   1.0000   1.0000
     1.0000   1.0000   1.0000   1.0000   1.0000   1.0000   1.0000   0.0000
     0.0000   0.0000   0.0000

          k = 0.2500-0.5247 0.0000 (  3811 PWs)   bands (ev):

   -26.0291 -26.0264 -16.4853 -14.3887 -13.6062 -12.7638 -10.9578 -10.2087
    -9.1368  -8.5059  -8.0231  -6.2282  -5.6959  -5.1748  -4.5635   4.7934
     5.9366   7.6989   8.8212

     occupation numbers 
     1.0000   1.0000   1.0000   1.0000   1.0000   1.0000   1.0000   1.0000
     1.0000   1.0000   1.0000   1.0000   1.0000   1.0000   1.0000   0.0000
     0.0000   0.0000   0.0000

          k = 0.2500-0.4296 0.0000 (  3829 PWs)   bands (ev):

   -26.1342 -26.1272 -17.6990 -14.9234 -12.8721 -11.8776  -9.9939  -9.9346
    -9.5597  -8.4326  -7.5308  -6.2523  -5.2869  -4.9500  -4.4723   4.7628
     6.0443   6.9700   9.1817

     occupation numbers 
     1.0000   1.0000   1.0000   1.0000   1.0000   1.0000   1.0000   1.0000
     1.0000   1.0000   1.0000   1.0000   1.0000   1.0000   1.0000   0.0000
     0.0000   0.0000   0.0000

          k = 0.2500-0.3345-0.0000 (  3839 PWs)   bands (ev):

   -26.3168 -26.3030 -18.8242 -15.8521 -11.9330 -10.8154 -10.0817  -9.1370
    -8.7903  -8.2112  -6.9787  -5.9752  -4.9726  -4.4498  -4.2168   4.5162
     5.2414   7.2414   7.5215

     occupation numbers 
     1.0000   1.0000   1.0000   1.0000   1.0000   1.0000   1.0000   1.0000
     1.0000   1.0000   1.0000   1.0000   1.0000   1.0000   1.0000   0.0000
     0.0000   0.0000   0.0000

          k = 0.2500-0.2394-0.0000 (  3820 PWs)   bands (ev):

   -26.5247 -26.5028 -19.6966 -16.5815 -11.3491 -10.4336  -9.6406  -8.6379
    -7.9165  -7.2580  -6.5432  -5.4474  -4.7313  -4.1931  -3.5074   3.4969
     4.7206   6.3614   7.3713

     occupation numbers 
     1.0000   1.0000   1.0000   1.0000   1.0000   1.0000   1.0000   1.0000
     1.0000   1.0000   1.0000   1.0000   1.0000   1.0000   1.0000   0.0000
     0.0000   0.0000   0.0000

          k = 0.3333-0.1925-0.0000 (  3831 PWs)   bands (ev):

   -26.4101 -26.3929 -19.2417 -16.2017 -12.0838 -10.7459 -10.1856  -8.7728
    -7.6671  -7.3173  -6.6862  -5.8542  -4.8968  -4.2244  -3.3584   2.8294
     4.5241   5.7440   7.3864

     occupation numbers 
     1.0000   1.0000   1.0000   1.0000   1.0000   1.0000   1.0000   1.0000
     1.0000   1.0000   1.0000   1.0000   1.0000   1.0000   1.0000   0.0000
     0.0000   0.0000   0.0000

          k = 0.3333-0.0974-0.0000 (  3820 PWs)   bands (ev):

   -26.5189 -26.4972 -19.6829 -16.5692 -11.3555 -10.4516  -9.6667  -8.6420
    -7.8828  -7.2695  -6.5021  -5.4643  -4.7431  -4.1835  -3.4879   3.4671
     4.6957   6.3434   7.3368

     occupation numbers 
     1.0000   1.0000   1.0000   1.0000   1.0000   1.0000   1.0000   1.0000
     1.0000   1.0000   1.0000   1.0000   1.0000   1.0000   1.0000   0.0000
     0.0000   0.0000   0.0000

          k = 0.3333-0.0023-0.0000 (  3809 PWs)   bands (ev):

   -26.5618 -26.5383 -19.8359 -16.6974 -11.2391  -9.7729  -9.7331  -8.4291
    -8.1519  -7.5866  -6.2992  -5.4009  -4.5680  -4.0525  -3.8298   4.3100
     4.6885   6.7611   7.7329

     occupation numbers 
     1.0000   1.0000   1.0000   1.0000   1.0000   1.0000   1.0000   1.0000
     1.0000   1.0000   1.0000   1.0000   1.0000   1.0000   1.0000   0.0000
     0.0000   0.0000   0.0000

          k = 0.3333 0.0928-0.0000 (  3809 PWs)   bands (ev):

   -26.5276 -26.5058 -19.6989 -16.5844 -11.3939 -10.5005  -9.6974  -8.6640
    -7.7941  -7.2458  -6.4485  -5.4840  -4.7524  -4.1454  -3.4293   3.5646
     4.6626   6.4824   7.3888

     occupation numbers 
     1.0000   1.0000   1.0000   1.0000   1.0000   1.0000   1.0000   1.0000
     1.0000   1.0000   1.0000   1.0000   1.0000   1.0000   1.0000   0.0000
     0.0000   0.0000   0.0000

          k = 0.3333 0.1879-0.0000 (  3815 PWs)   bands (ev):

   -26.4255 -26.4082 -19.2738 -16.2325 -12.1383 -10.7889 -10.2064  -8.7931
    -7.5608  -7.3213  -6.5998  -5.8712  -4.9034  -4.1684  -3.2943   2.9676
     4.5264   5.8515   7.4836

     occupation numbers 
     1.0000   1.0000   1.0000   1.0000   1.0000   1.0000   1.0000   1.0000
     1.0000   1.0000   1.0000   1.0000   1.0000   1.0000   1.0000   0.0000
     0.0000   0.0000   0.0000

          k = 0.3333 0.2830-0.0000 (  3824 PWs)   bands (ev):

   -26.2826 -26.2710 -18.5687 -15.6518 -12.9920 -11.2998 -10.1649  -8.9085
    -8.3350  -7.6050  -7.0928  -6.1829  -5.0985  -4.3538  -3.7283   3.5918
     4.8016   6.0668   7.7669

     occupation numbers 
     1.0000   1.0000   1.0000   1.0000   1.0000   1.0000   1.0000   1.0000
     1.0000   1.0000   1.0000   1.0000   1.0000   1.0000   1.0000   0.0000
     0.0000   0.0000   0.0000

          k = 0.3333-0.7630 0.0000 (  3833 PWs)   bands (ev):

   -26.1369 -26.1305 -17.6109 -14.8875 -13.6102 -11.9344 -10.0103  -9.6316
    -9.0724  -8.2256  -7.6071  -6.3222  -5.4261  -4.5337  -4.4196   4.4835
     5.5816   7.1420   7.5777

     occupation numbers 
     1.0000   1.0000   1.0000   1.0000   1.0000   1.0000   1.0000   1.0000
     1.0000   1.0000   1.0000   1.0000   1.0000   1.0000   1.0000   0.0000
     0.0000   0.0000   0.0000

          k = 0.3333-0.6679 0.0000 (  3826 PWs)   bands (ev):

   -26.0275 -26.0248 -16.5047 -14.2686 -13.7161 -12.6824 -10.9790 -10.2634
    -9.1248  -8.5005  -8.0434  -6.2054  -5.7051  -5.1944  -4.5707   4.8229
     5.8955   7.6908   8.7883

     occupation numbers 
     1.0000   1.0000   1.0000   1.0000   1.0000   1.0000   1.0000   1.0000
     1.0000   1.0000   1.0000   1.0000   1.0000   1.0000   1.0000   0.0000
     0.0000   0.0000   0.0000

          k = 0.3333-0.5728 0.0000 (  3815 PWs)   bands (ev):

   -25.9837 -25.9826 -15.7829 -13.9817 -13.9664 -12.9033 -11.1568 -11.1435
    -8.6160  -8.5441  -8.5364  -5.8280  -5.8049  -5.7976  -4.5968   5.2679
     5.3123   8.4907   9.2787

     occupation numbers 
     1.0000   1.0000   1.0000   1.0000   1.0000   1.0000   1.0000   1.0000
     1.0000   1.0000   1.0000   1.0000   1.0000   1.0000   1.0000   0.0000
     0.0000   0.0000   0.0000

          k = 0.3333-0.4777-0.0000 (  3822 PWs)   bands (ev):

   -26.0178 -26.0151 -16.4317 -14.2166 -13.7405 -12.7397 -10.9847 -10.2957
    -9.1141  -8.5005  -8.0451  -6.2161  -5.7130  -5.2103  -4.5706   4.8423
     5.8716   7.6877   8.6750

     occupation numbers 
     1.0000   1.0000   1.0000   1.0000   1.0000   1.0000   1.0000   1.0000
     1.0000   1.0000   1.0000   1.0000   1.0000   1.0000   1.0000   0.0000
     0.0000   0.0000   0.0000

          k = 0.3333-0.3826-0.0000 (  3827 PWs)   bands (ev):

   -26.1204 -26.1142 -17.5464 -14.8141 -13.6273 -11.9516 -10.0276  -9.6460
    -9.0879  -8.2641  -7.6003  -6.3321  -5.4387  -4.5653  -4.4321   4.4719
     5.5136   7.0608   7.4366

     occupation numbers 
     1.0000   1.0000   1.0000   1.0000   1.0000   1.0000   1.0000   1.0000
     1.0000   1.0000   1.0000   1.0000   1.0000   1.0000   1.0000   0.0000
     0.0000   0.0000   0.0000

          k = 0.3333-0.2875-0.0000 (  3831 PWs)   bands (ev):

   -26.2641 -26.2527 -18.5202 -15.6035 -12.9641 -11.2745 -10.1470  -8.9064
    -8.4059  -7.6418  -7.1308  -6.1825  -5.1024  -4.3910  -3.7782   3.4466
     4.8236   5.9057   7.6392

     occupation numbers 
     1.0000   1.0000   1.0000   1.0000   1.0000   1.0000   1.0000   1.0000
     1.0000   1.0000   1.0000   1.0000   1.0000   1.0000   1.0000   0.0000
     0.0000   0.0000   0.0000

          k = 0.4167-0.2406-0.0000 (  3826 PWs)   bands (ev):

   -26.1856 -26.1778 -17.9474 -15.1605 -13.9704 -12.0679 -10.0115  -8.9668
    -8.0732  -7.6617  -7.0034  -6.5303  -5.1241  -4.3845  -3.5810   2.8037
     4.3727   5.2387   7.6268

     occupation numbers 
     1.0000   1.0000   1.0000   1.0000   1.0000   1.0000   1.0000   1.0000
     1.0000   1.0000   1.0000   1.0000   1.0000   1.0000   1.0000   0.0000
     0.0000   0.0000   0.0000

          k = 0.4167-0.1455-0.0000 (  3833 PWs)   bands (ev):

   -26.2597 -26.2483 -18.5030 -15.5882 -12.9923 -11.3008 -10.1426  -8.9164
    -8.3692  -7.6711  -7.0870  -6.1966  -5.1050  -4.3870  -3.7643   3.4263
     4.8062   5.8874   7.6274

     occupation numbers 
     1.0000   1.0000   1.0000   1.0000   1.0000   1.0000   1.0000   1.0000
     1.0000   1.0000   1.0000   1.0000   1.0000   1.0000   1.0000   0.0000
     0.0000   0.0000   0.0000

          k = 0.4167-0.0504-0.0000 (  3833 PWs)   bands (ev):

   -26.3065 -26.2930 -18.7928 -15.8234 -11.9792 -10.8470 -10.0878  -9.1253
    -8.7560  -8.2220  -6.9454  -6.0025  -4.9912  -4.4499  -4.1897   4.4995
     5.2155   7.2359   7.4746

     occupation numbers 
     1.0000   1.0000   1.0000   1.0000   1.0000   1.0000   1.0000   1.0000
     1.0000   1.0000   1.0000   1.0000   1.0000   1.0000   1.0000   0.0000
     0.0000   0.0000   0.0000

          k = 0.4167 0.0447-0.0000 (  3825 PWs)   bands (ev):

   -26.3116 -26.2981 -18.8034 -15.8343 -12.0274 -10.8651 -10.0878  -9.1064
    -8.7321  -8.1947  -6.9281  -6.0098  -4.9980  -4.4326  -4.1586   4.5490
     5.1859   7.2625   7.6317

     occupation numbers 
     1.0000   1.0000   1.0000   1.0000   1.0000   1.0000   1.0000   1.0000
     1.0000   1.0000   1.0000   1.0000   1.0000   1.0000   1.0000   0.0000
     0.0000   0.0000   0.0000

          k = 0.4167 0.1398-0.0000 (  3829 PWs)   bands (ev):

   -26.2739 -26.2625 -18.5349 -15.6225 -13.0472 -11.3506 -10.1567  -8.9263
    -8.2665  -7.6586  -7.0104  -6.2092  -5.1045  -4.3449  -3.7014   3.5552
     4.7689   6.0300   7.7351

     occupation numbers 
     1.0000   1.0000   1.0000   1.0000   1.0000   1.0000   1.0000   1.0000
     1.0000   1.0000   1.0000   1.0000   1.0000   1.0000   1.0000   0.0000
     0.0000   0.0000   0.0000

          k = 0.4167 0.2349-0.0000 (  3812 PWs)   bands (ev):

   -26.2053 -26.1974 -18.0017 -15.2285 -13.9896 -12.1043 -10.0350  -8.9876
    -7.9546  -7.6616  -6.9046  -6.5385  -5.1300  -4.3243  -3.5126   2.9737
     4.3497   5.3819   7.6978

     occupation numbers 
     1.0000   1.0000   1.0000   1.0000   1.0000   1.0000   1.0000   1.0000
     1.0000   1.0000   1.0000   1.0000   1.0000   1.0000   1.0000   0.0000
     0.0000   0.0000   0.0000

          k = 0.4167-0.8111 0.0000 (  3828 PWs)   bands (ev):

   -26.1266 -26.1221 -17.2632 -15.0514 -14.2219 -12.7320  -9.8235  -9.1260
    -8.5805  -7.7329  -7.4139  -6.6061  -5.2975  -4.4420  -3.8586   3.7607
     4.3555   5.8953   7.9946

     occupation numbers 
     1.0000   1.0000   1.0000   1.0000   1.0000   1.0000   1.0000   1.0000
     1.0000   1.0000   1.0000   1.0000   1.0000   1.0000   1.0000   0.0000
     0.0000   0.0000   0.0000

          k = 0.4167-0.7160 0.0000 (  3831 PWs)   bands (ev):

   -26.0590 -26.0565 -16.5898 -15.0728 -13.6420 -13.0544 -10.1742  -9.3920
    -9.2257  -8.2507  -7.8418  -6.4692  -5.5917  -4.5496  -4.4982   4.4631
     5.5382   7.1658   7.5743

     occupation numbers 
     1.0000   1.0000   1.0000   1.0000   1.0000   1.0000   1.0000   1.0000
     1.0000   1.0000   1.0000   1.0000   1.0000   1.0000   1.0000   0.0000
     0.0000   0.0000   0.0000

          k = 0.4167-0.6209-0.0000 (  3817 PWs)   bands (ev):

   -26.0187 -26.0161 -16.4090 -14.3445 -13.6188 -12.8244 -10.9653 -10.2427
    -9.1256  -8.5060  -8.0237  -6.2402  -5.7047  -5.1911  -4.5621   4.8152
     5.9099   7.7051   8.7320

     occupation numbers 
     1.0000   1.0000   1.0000   1.0000   1.0000   1.0000   1.0000   1.0000
     1.0000   1.0000   1.0000   1.0000   1.0000   1.0000   1.0000   0.0000
     0.0000   0.0000   0.0000

          k = 0.4167-0.5258-0.0000 (  3821 PWs)   bands (ev):

   -26.0132 -26.0106 -16.3819 -14.2641 -13.6818 -12.8125 -10.9784 -10.2854
    -9.1143  -8.5034  -8.0350  -6.2341  -5.7127  -5.2085  -4.5661   4.8392
     5.8777   7.6938   8.6500

     occupation numbers 
     1.0000   1.0000   1.0000   1.0000   1.0000   1.0000   1.0000   1.0000
     1.0000   1.0000   1.0000   1.0000   1.0000   1.0000   1.0000   0.0000
     0.0000   0.0000   0.0000

          k = 0.4167-0.4307-0.0000 (  3841 PWs)   bands (ev):

   -26.0441 -26.0416 -16.5085 -15.0330 -13.6091 -13.0727 -10.2362  -9.4129
    -9.2177  -8.2930  -7.8503  -6.4649  -5.6095  -4.5628  -4.5402   4.5019
     5.3836   7.1126   7.4457

     occupation numbers 
     1.0000   1.0000   1.0000   1.0000   1.0000   1.0000   1.0000   1.0000
     1.0000   1.0000   1.0000   1.0000   1.0000   1.0000   1.0000   0.0000
     0.0000   0.0000   0.0000

          k = 0.4167-0.3357-0.0000 (  3834 PWs)   bands (ev):

   -26.1065 -26.1020 -17.1852 -14.9744 -14.2212 -12.7227  -9.8005  -9.1235
    -8.6711  -7.7447  -7.4895  -6.6056  -5.3039  -4.4829  -3.9167   3.5933
     4.3681   5.7436   7.9128

     occupation numbers 
     1.0000   1.0000   1.0000   1.0000   1.0000   1.0000   1.0000   1.0000
     1.0000   1.0000   1.0000   1.0000   1.0000   1.0000   1.0000   0.0000
     0.0000   0.0000   0.0000

          k =-0.5000 0.2887 0.0000 (  3828 PWs)   bands (ev):

   -26.1004 -26.0972 -16.9003 -15.4363 -13.9912 -13.2390  -9.7423  -9.1482
    -8.2143  -7.7432  -7.1165  -6.7700  -5.2138  -4.4395  -3.6555   2.8760
     4.0718   5.1550   8.0555

     occupation numbers 
     1.0000   1.0000   1.0000   1.0000   1.0000   1.0000   1.0000   1.0000
     1.0000   1.0000   1.0000   1.0000   1.0000   1.0000   1.0000   0.0000
     0.0000   0.0000   0.0000

          k =-0.5000 0.3838 0.0000 (  3840 PWs)   bands (ev):

   -26.1048 -26.1004 -17.1687 -14.9873 -14.2114 -12.7452  -9.7924  -9.1373
    -8.6533  -7.7674  -7.4616  -6.6107  -5.3043  -4.4821  -3.9115   3.5871
     4.3599   5.7369   7.9137

     occupation numbers 
     1.0000   1.0000   1.0000   1.0000   1.0000   1.0000   1.0000   1.0000
     1.0000   1.0000   1.0000   1.0000   1.0000   1.0000   1.0000   0.0000
     0.0000   0.0000   0.0000

          k =-0.5000 0.4789 0.0000 (  3829 PWs)   bands (ev):

   -26.1142 -26.1081 -17.5095 -14.7840 -13.6738 -12.0044 -10.0006  -9.6387
    -9.0827  -8.2763  -7.5704  -6.3545  -5.4402  -4.5783  -4.4048   4.4635
     5.5018   7.0254   7.4526

     occupation numbers 
     1.0000   1.0000   1.0000   1.0000   1.0000   1.0000   1.0000   1.0000
     1.0000   1.0000   1.0000   1.0000   1.0000   1.0000   1.0000   0.0000
     0.0000   0.0000   0.0000

          k =-0.5000 0.5739 0.0000 (  3835 PWs)   bands (ev):

   -26.1222 -26.1154 -17.6457 -14.8701 -12.9279 -11.9253  -9.9699  -9.9321
    -9.5717  -8.4345  -7.5131  -6.2793  -5.3048  -4.9494  -4.4620   4.7569
     6.0577   6.9445   9.0998

     occupation numbers 
     1.0000   1.0000   1.0000   1.0000   1.0000   1.0000   1.0000   1.0000
     1.0000   1.0000   1.0000   1.0000   1.0000   1.0000   1.0000   0.0000
     0.0000   0.0000   0.0000

          k =-0.5000 0.6690 0.0000 (  3828 PWs)   bands (ev):

   -26.1249 -26.1187 -17.5390 -14.8333 -13.6971 -12.0372  -9.9586  -9.6200
    -9.0587  -8.2525  -7.5458  -6.3653  -5.4296  -4.5584  -4.3668   4.4657
     5.5690   7.0701   7.6060

     occupation numbers 
     1.0000   1.0000   1.0000   1.0000   1.0000   1.0000   1.0000   1.0000
     1.0000   1.0000   1.0000   1.0000   1.0000   1.0000   1.0000   0.0000
     0.0000   0.0000   0.0000

          k =-0.5000 0.7641 0.0000 (  3836 PWs)   bands (ev):

   -26.1232 -26.1189 -17.2315 -15.0738 -14.2060 -12.7750  -9.8087  -9.1490
    -8.5488  -7.7672  -7.3699  -6.6152  -5.2987  -4.4399  -3.8486   3.7516
     4.3377   5.8824   7.9888

     occupation numbers 
     1.0000   1.0000   1.0000   1.0000   1.0000   1.0000   1.0000   1.0000
     1.0000   1.0000   1.0000   1.0000   1.0000   1.0000   1.0000   0.0000
     0.0000   0.0000   0.0000

          k =-0.5000-0.2819 0.0001 (  3824 PWs)   bands (ev):

   -26.1217 -26.1186 -16.9907 -15.4825 -14.0320 -13.2416  -9.7728  -9.1657
    -8.0915  -7.7430  -7.0134  -6.7755  -5.2191  -4.3778  -3.5857   3.0738
     4.0321   5.3110   8.0717

     occupation numbers 
     1.0000   1.0000   1.0000   1.0000   1.0000   1.0000   1.0000   1.0000
     1.0000   1.0000   1.0000   1.0000   1.0000   1.0000   1.0000   0.0000
     0.0000   0.0000   0.0000

     the Fermi energy is     0.4590 ev

!    total energy              =    -189.94041797 Ry
     Harris-Foulkes estimate   =    -189.94041807 Ry
     estimated scf accuracy    <       0.00000011 Ry

     total all-electron energy =      -701.912533 Ry

     The total energy is the sum of the following terms:

     one-electron contribution =   -1547.43235801 Ry
     hartree contribution      =     783.50898910 Ry
     xc contribution           =     -37.26910945 Ry
     ewald contribution        =     656.25091616 Ry
     one-center paw contrib.   =     -44.99885577 Ry
      -> PAW hartree energy AE =     118.56430748 Ry
      -> PAW hartree energy PS =    -118.48414201 Ry
      -> PAW xc energy AE      =     -80.70982118 Ry
      -> PAW xc energy PS      =      35.63079994 Ry
      -> total E_H with PAW    =     783.58915457 Ry
      -> total E_XC with PAW   =     -82.34813068 Ry
     smearing contrib. (-TS)   =      -0.00000000 Ry

     convergence has been achieved in   8 iterations

     negative rho (up, down):  6.611E-04 0.000E+00

     Forces acting on atoms (cartesian axes, Ry/au):

     atom    1 type  1   force =     0.00089007   -0.00122337   -0.01113847
     atom    2 type  1   force =    -0.00109706    0.00158689    0.00254451
     atom    3 type  1   force =    -0.00089088    0.00122232    0.01104810
     atom    4 type  1   force =     0.00109659   -0.00158805   -0.00265162
     atom    5 type  2   force =     0.00009250   -0.00015259    0.01630858
     atom    6 type  2   force =    -0.00009123    0.00015480   -0.01611110
     The non-local contrib.  to forces
     atom    1 type  1   force =     0.00413200   -0.00701133   -0.41058373
     atom    2 type  1   force =    -0.00397570    0.00670566    0.09710119
     atom    3 type  1   force =    -0.00413374    0.00700966    0.41064504
     atom    4 type  1   force =     0.00397157   -0.00670733   -0.09700454
     atom    5 type  2   force =    -0.00077930    0.00143647    3.17874009
     atom    6 type  2   force =     0.00080294   -0.00142116   -3.17844586
     The ionic contribution  to forces
     atom    1 type  1   force =     0.04125741   -0.07235724  -13.95585780
     atom    2 type  1   force =    -0.04273781    0.07514777   -9.54646148
     atom    3 type  1   force =    -0.04121811    0.07237834   13.95601963
     atom    4 type  1   force =     0.04272805   -0.07515143    9.54644043
     atom    5 type  2   force =     0.00446448   -0.00810330  -68.64924025
     atom    6 type  2   force =    -0.00449403    0.00808586   68.64909946
     The local contribution  to forces
     atom    1 type  1   force =    -0.04423392    0.07768664   14.34696297
     atom    2 type  1   force =     0.04534878   -0.07979514    9.45462335
     atom    3 type  1   force =     0.04419648   -0.07770712  -14.34682817
     atom    4 type  1   force =    -0.04533712    0.07980038   -9.45425574
     atom    5 type  2   force =    -0.00359479    0.00652222   65.49750858
     atom    6 type  2   force =     0.00360238   -0.00651714  -65.49739793
     The core correction contribution to forces
     atom    1 type  1   force =    -0.00026608    0.00046087    0.00899812
     atom    2 type  1   force =     0.00026624   -0.00046901   -0.00209530
     atom    3 type  1   force =     0.00026597   -0.00045994   -0.00908068
     atom    4 type  1   force =    -0.00026404    0.00046951    0.00194820
     atom    5 type  2   force =     0.00000228   -0.00000666   -0.01026687
     atom    6 type  2   force =    -0.00000225    0.00000572    0.01026746
     The Hubbard contrib.    to forces
     atom    1 type  1   force =     0.00000000    0.00000000    0.00000000
     atom    2 type  1   force =     0.00000000    0.00000000    0.00000000
     atom    3 type  1   force =     0.00000000    0.00000000    0.00000000
     atom    4 type  1   force =     0.00000000    0.00000000    0.00000000
     atom    5 type  2   force =     0.00000000    0.00000000    0.00000000
     atom    6 type  2   force =     0.00000000    0.00000000    0.00000000
     The SCF correction term to forces
     atom    1 type  1   force =     0.00000084   -0.00000174   -0.00065999
     atom    2 type  1   force =     0.00000160   -0.00000183   -0.00062521
     atom    3 type  1   force =    -0.00000131    0.00000194    0.00029033
     atom    4 type  1   force =    -0.00000170    0.00000137    0.00021807
     atom    5 type  2   force =     0.00000000   -0.00000076   -0.00043492
     atom    6 type  2   force =    -0.00000010    0.00000208    0.00036382

     Total force =     0.028236     Total SCF correction =     0.001131


     Computing stress (Cartesian axis) and pressure


     negative rho (up, down):  6.611E-04 0.000E+00
          total   stress  (Ry/bohr**3)                   (kbar)     P=    3.31
   0.00020766  -0.00005320  -0.00000266         30.55     -7.83     -0.39
  -0.00005320   0.00002275   0.00000370         -7.83      3.35      0.54
  -0.00000266   0.00000370  -0.00016287         -0.39      0.54    -23.96

     kinetic stress (kbar)   9494.49     -7.83      1.39
                               -7.83   9466.83     -2.57
                                1.39     -2.57   8586.22

     local   stress (kbar)-303458.39     44.46     28.92
                               44.46-303297.27    -51.37
                               28.92    -51.37 292980.02

     nonloc. stress (kbar)   3235.32     -0.23     -0.44
                               -0.23   3234.57      0.76
                               -0.44      0.76   2961.42

     hartree stress (kbar) 149583.47    -14.77     -6.89
                              -14.77 149529.30     12.34
                               -6.89     12.34-144995.16

     exc-cor stress (kbar)  -1168.05     -0.05     -0.04
                               -0.05  -1168.22      0.06
                               -0.04      0.06  -1165.16

     corecor stress (kbar)   -968.21      0.15      0.08
                                0.15   -967.69     -0.13
                                0.08     -0.13   -959.26

     ewald   stress (kbar) 143311.92    -29.56    -23.41
                              -29.56 143205.83     41.45
                              -23.41     41.45-157432.04

     hubbard stress (kbar)      0.00      0.00      0.00
                                0.00      0.00      0.00
                                0.00      0.00      0.00

     london  stress (kbar)      0.00      0.00      0.00
                                0.00      0.00      0.00
                                0.00      0.00      0.00

     DFT-D3  stress (kbar)      0.00      0.00      0.00
                                0.00      0.00      0.00
                                0.00      0.00      0.00

     XDM     stress (kbar)      0.00      0.00      0.00
                                0.00      0.00      0.00
                                0.00      0.00      0.00

     dft-nl  stress (kbar)      0.00      0.00      0.00
                                0.00      0.00      0.00
                                0.00      0.00      0.00

     TS-vdW  stress (kbar)      0.00      0.00      0.00
                                0.00      0.00      0.00
                                0.00      0.00      0.00

     3D-RISM stress (kbar)      0.00      0.00      0.00
                                0.00      0.00      0.00
                                0.00      0.00      0.00



     Writing output data file pwscf.save\

     init_run     :     15.86s CPU      7.96s WALL (       1 calls)
     electrons    :     95.08s CPU     63.35s WALL (       1 calls)
     forces       :      8.41s CPU      1.56s WALL (       1 calls)
     stress       :     21.44s CPU      4.79s WALL (       1 calls)

     Called by init_run:
     wfcinit      :      5.16s CPU      3.33s WALL (       1 calls)
     wfcinit:atom :      0.08s CPU      0.07s WALL (      74 calls)
     wfcinit:wfcr :      4.23s CPU      2.54s WALL (      74 calls)
     potinit      :      4.31s CPU      0.58s WALL (       1 calls)
     hinit0       :      6.33s CPU      3.95s WALL (       1 calls)

     Called by electrons:
     c_bands      :     74.73s CPU     51.49s WALL (       8 calls)
     sum_band     :     16.14s CPU      9.59s WALL (       8 calls)
     v_of_rho     :      1.17s CPU      0.54s WALL (       9 calls)
     v_h          :      0.08s CPU      0.03s WALL (       9 calls)
     v_xc         :      1.42s CPU      0.63s WALL (      11 calls)
     newd         :      0.86s CPU      0.62s WALL (       9 calls)
     PAW_pot      :      2.27s CPU      1.22s WALL (       9 calls)
     mix_rho      :      0.39s CPU      0.08s WALL (       8 calls)

     Called by c_bands:
     init_us_2    :      1.23s CPU      0.87s WALL (    1406 calls)
     cegterg      :     71.81s CPU     49.98s WALL (     592 calls)

     Called by sum_band:
     sum_band:bec :      0.14s CPU      0.41s WALL (     592 calls)
     addusdens    :      0.97s CPU      0.78s WALL (       8 calls)

     Called by *egterg:
     h_psi        :     66.84s CPU     40.37s WALL (    2755 calls)
     s_psi        :      1.77s CPU      1.69s WALL (    2755 calls)
     g_psi        :      0.16s CPU      0.29s WALL (    2089 calls)
     cdiaghg      :      1.48s CPU      1.82s WALL (    2681 calls)
     cegterg:over :      2.41s CPU      2.65s WALL (    2089 calls)
     cegterg:upda :      1.33s CPU      2.11s WALL (    2089 calls)
     cegterg:last :      0.34s CPU      0.63s WALL (     596 calls)

     Called by h_psi:
     h_psi:pot    :     66.12s CPU     39.65s WALL (    2755 calls)
     h_psi:calbec :      4.75s CPU      1.90s WALL (    2755 calls)
     vloc_psi     :     59.03s CPU     35.87s WALL (    2755 calls)
     add_vuspsi   :      2.34s CPU      1.87s WALL (    2755 calls)

     General routines
     calbec       :      6.50s CPU      2.81s WALL (    3717 calls)
     fft          :      0.19s CPU      0.11s WALL (     140 calls)
     ffts         :      0.05s CPU      0.00s WALL (      17 calls)
     fftw         :     33.97s CPU     20.18s WALL (   78416 calls)
     interpolate  :      0.02s CPU      0.02s WALL (       9 calls)

     Parallel routines

     PAW routines
     PAW_pot      :      2.27s CPU      1.22s WALL (       9 calls)

     PWSCF        :   2m22.45s CPU   1m20.31s WALL


   This run was terminated on:  14:15:42   1Dec2024            

=------------------------------------------------------------------------------=
   JOB DONE.
=------------------------------------------------------------------------------=
