
     Program PWSCF v.6.4.1 starts on  1Dec2024 at 14:25: 4 

     This program is part of the open-source Quantum ESPRESSO suite
     for quantum simulation of materials; please cite
         "P. Giannozzi et al., J. Phys.:Condens. Matter 21 395502 (2009);
         "P. Giannozzi et al., J. Phys.:Condens. Matter 29 465901 (2017);
          URL http://www.quantum-espresso.org", 
     in publications or presentations arising from this work. More details at
     http://www.quantum-espresso.org/quote

     Parallel version (MPI & OpenMP), running on      12 processor cores
     Number of MPI processes:                 1
     Threads/MPI process:                    12

     MPI processes distributed on     1 nodes
     Waiting for input...
     Reading input from standard input
Warning: card &IONS ignored
Warning: card ION_DYNAMICS = 'BFGS' ignored
Warning: card / ignored
Warning: card &CELL ignored
Warning: card CELL_DOFREE = 'ALL' ignored
Warning: card CELL_DYNAMICS = 'BFGS' ignored
Warning: card PRESS = 0.0 ignored
Warning: card PRESS_CONV_THR = 0.5 ignored
Warning: card / ignored

     Current dimensions of program PWSCF are:
     Max number of different atomic species (ntypx) = 10
     Max number of k-points (npk) =  40000
     Max angular momentum in pseudopotentials (lmaxx) =  3
               file C.pbesol-n-kjpaw_psl.1.0.0.UPF: wavefunction(s)  2S 2P renormalized
               file F.pbesol-n-kjpaw_psl.1.0.0.UPF: wavefunction(s)  2S 2P renormalized

     Subspace diagonalization in iterative solution of the eigenvalue problem:
     a serial algorithm will be used


     G-vector sticks info
     --------------------
     sticks:   dense  smooth     PW     G-vecs:    dense   smooth      PW
     Sum         587     295    103                89129    31525    6365



     bravais-lattice index     =            0
     lattice parameter (alat)  =       4.9058  a.u.
     unit-cell volume          =     771.6375 (a.u.)^3
     number of atoms/cell      =            6
     number of atomic types    =            2
     number of electrons       =        30.00
     number of Kohn-Sham states=           19
     kinetic-energy cutoff     =      45.0000  Ry
     charge density cutoff     =     360.0000  Ry
     convergence threshold     =      1.0E-06
     mixing beta               =       0.7000
     number of iterations used =            8  plain     mixing
     Exchange-correlation      = SLA PW PSX PSC ( 1  4 10  8 0 0)

     celldm(1)=   4.905750  celldm(2)=   0.000000  celldm(3)=   0.000000
     celldm(4)=   0.000000  celldm(5)=   0.000000  celldm(6)=   0.000000

     crystal axes: (cart. coord. in units of alat)
               a(1) = (   1.000000  -0.000000   0.000000 )  
               a(2) = (   0.490370   0.849346   0.000000 )  
               a(3) = (   0.000628   0.000368   7.695069 )  

     reciprocal axes: (cart. coord. in units 2 pi/alat)
               b(1) = (  1.000000 -0.577350 -0.000054 )  
               b(2) = (  0.000000  1.177377 -0.000056 )  
               b(3) = ( -0.000000  0.000000  0.129953 )  


     PseudoPot. # 1 for C  read from file:
     .\C.pbesol-n-kjpaw_psl.1.0.0.UPF
     MD5 check sum: f9b2fe17d1f478429498b05d17159f9e
     Pseudo is Projector augmented-wave + core cor, Zval =  4.0
     Generated using "atomic" code by A. Dal Corso v.6.3
     Shape of augmentation charge: PSQ
     Using radial grid of 1073 points,  4 beta functions with: 
                l(1) =   0
                l(2) =   0
                l(3) =   1
                l(4) =   1
     Q(r) pseudized with 0 coefficients 


     PseudoPot. # 2 for F  read from file:
     .\F.pbesol-n-kjpaw_psl.1.0.0.UPF
     MD5 check sum: d939582bcd23f1ece12cfc4fab8d9d36
     Pseudo is Projector augmented-wave + core cor, Zval =  7.0
     Generated using "atomic" code by A. Dal Corso v.6.3
     Shape of augmentation charge: PSQ
     Using radial grid of 1105 points,  4 beta functions with: 
                l(1) =   0
                l(2) =   0
                l(3) =   1
                l(4) =   1
     Q(r) pseudized with 0 coefficients 


     atomic species   valence    mass     pseudopotential
        C              4.00    12.01070     C ( 1.00)
        F              7.00    18.99840     F ( 1.00)

     No symmetry found


                                    s                        frac. trans.

      isym =  1     identity                                     

 cryst.   s( 1) = (     1          0          0      )
                  (     0          1          0      )
                  (     0          0          1      )

 cart.    s( 1) = (  1.0000000  0.0000000  0.0000000 )
                  (  0.0000000  1.0000000  0.0000000 )
                  (  0.0000000  0.0000000  1.0000000 )


   Cartesian axes

     site n.     atom                  positions (alat units)
         1           C   tau(   1) = (   0.0003455   0.0002030   3.8739163  )
         2           C   tau(   2) = (   0.4971359   0.2833184   4.0676716  )
         3           C   tau(   3) = (   0.9939214   0.5664302   4.8600040  )
         4           C   tau(   4) = (   0.4971315   0.2833150   4.6662446  )
         5           F   tau(   5) = (   0.0003394   0.0001981   3.3430381  )
         6           F   tau(   6) = (   0.9939236   0.5664330   5.3908854  )

   Crystallographic axes

     site n.     atom                  positions (cryst. coord.)
         1           C   tau(   1) = (  0.0000192  0.0000206  0.5034284  )
         2           C   tau(   2) = (  0.3333424  0.3333434  0.5286075  )
         3           C   tau(   3) = (  0.6666304  0.6666281  0.6315738  )
         4           C   tau(   4) = (  0.3333076  0.3333056  0.6063941  )
         5           F   tau(   5) = (  0.0000446  0.0000447  0.4344390  )
         6           F   tau(   6) = (  0.6666024  0.6666014  0.7005636  )

     number of k points=    74  Marzari-Vanderbilt smearing, width (Ry)=  0.0200
                       cart. coord. in units 2pi/alat
        k(    1) = (   0.0000000   0.0000000   0.0000000), wk =   0.0138889
        k(    2) = (   0.0000000   0.0981147  -0.0000047), wk =   0.0277778
        k(    3) = (   0.0000000   0.1962295  -0.0000094), wk =   0.0277778
        k(    4) = (   0.0000001   0.2943442  -0.0000141), wk =   0.0277778
        k(    5) = (   0.0000001   0.3924590  -0.0000188), wk =   0.0277778
        k(    6) = (   0.0000001   0.4905737  -0.0000235), wk =   0.0277778
        k(    7) = (  -0.0000001  -0.5886885   0.0000282), wk =   0.0138889
        k(    8) = (   0.0833333  -0.0481125  -0.0000045), wk =   0.0277778
        k(    9) = (   0.0833333   0.0500022  -0.0000092), wk =   0.0277778
        k(   10) = (   0.0833334   0.1481170  -0.0000139), wk =   0.0277778
        k(   11) = (   0.0833334   0.2462317  -0.0000186), wk =   0.0277778
        k(   12) = (   0.0833334   0.3443465  -0.0000233), wk =   0.0277778
        k(   13) = (   0.0833334   0.4424612  -0.0000280), wk =   0.0277778
        k(   14) = (   0.0833332  -0.6368010   0.0000237), wk =   0.0277778
        k(   15) = (   0.0833332  -0.5386862   0.0000190), wk =   0.0277778
        k(   16) = (   0.0833332  -0.4405715   0.0000143), wk =   0.0277778
        k(   17) = (   0.0833333  -0.3424567   0.0000096), wk =   0.0277778
        k(   18) = (   0.0833333  -0.2443420   0.0000049), wk =   0.0277778
        k(   19) = (   0.0833333  -0.1462273   0.0000002), wk =   0.0277778
        k(   20) = (   0.1666666  -0.0962250  -0.0000090), wk =   0.0277778
        k(   21) = (   0.1666667   0.0018897  -0.0000137), wk =   0.0277778
        k(   22) = (   0.1666667   0.1000045  -0.0000184), wk =   0.0277778
        k(   23) = (   0.1666667   0.1981192  -0.0000231), wk =   0.0277778
        k(   24) = (   0.1666667   0.2962340  -0.0000278), wk =   0.0277778
        k(   25) = (   0.1666667   0.3943487  -0.0000325), wk =   0.0277778
        k(   26) = (   0.1666665  -0.6849135   0.0000192), wk =   0.0277778
        k(   27) = (   0.1666665  -0.5867987   0.0000145), wk =   0.0277778
        k(   28) = (   0.1666666  -0.4886840   0.0000098), wk =   0.0277778
        k(   29) = (   0.1666666  -0.3905693   0.0000051), wk =   0.0277778
        k(   30) = (   0.1666666  -0.2924545   0.0000004), wk =   0.0277778
        k(   31) = (   0.1666666  -0.1943398  -0.0000043), wk =   0.0277778
        k(   32) = (   0.2500000  -0.1443375  -0.0000135), wk =   0.0277778
        k(   33) = (   0.2500000  -0.0462228  -0.0000182), wk =   0.0277778
        k(   34) = (   0.2500000   0.0518920  -0.0000229), wk =   0.0277778
        k(   35) = (   0.2500000   0.1500067  -0.0000276), wk =   0.0277778
        k(   36) = (   0.2500001   0.2481215  -0.0000323), wk =   0.0277778
        k(   37) = (   0.2500001   0.3462362  -0.0000370), wk =   0.0277778
        k(   38) = (   0.2499999  -0.7330260   0.0000147), wk =   0.0277778
        k(   39) = (   0.2499999  -0.6349113   0.0000100), wk =   0.0277778
        k(   40) = (   0.2499999  -0.5367965   0.0000053), wk =   0.0277778
        k(   41) = (   0.2499999  -0.4386818   0.0000006), wk =   0.0277778
        k(   42) = (   0.2499999  -0.3405670  -0.0000041), wk =   0.0277778
        k(   43) = (   0.2500000  -0.2424523  -0.0000088), wk =   0.0277778
        k(   44) = (   0.3333333  -0.1924500  -0.0000180), wk =   0.0277778
        k(   45) = (   0.3333333  -0.0943353  -0.0000227), wk =   0.0277778
        k(   46) = (   0.3333333   0.0037795  -0.0000274), wk =   0.0277778
        k(   47) = (   0.3333334   0.1018942  -0.0000321), wk =   0.0277778
        k(   48) = (   0.3333334   0.2000090  -0.0000368), wk =   0.0277778
        k(   49) = (   0.3333334   0.2981237  -0.0000415), wk =   0.0277778
        k(   50) = (   0.3333332  -0.7811385   0.0000102), wk =   0.0277778
        k(   51) = (   0.3333332  -0.6830238   0.0000055), wk =   0.0277778
        k(   52) = (   0.3333332  -0.5849090   0.0000008), wk =   0.0277778
        k(   53) = (   0.3333332  -0.4867943  -0.0000039), wk =   0.0277778
        k(   54) = (   0.3333333  -0.3886795  -0.0000086), wk =   0.0277778
        k(   55) = (   0.3333333  -0.2905648  -0.0000133), wk =   0.0277778
        k(   56) = (   0.4166666  -0.2405625  -0.0000225), wk =   0.0277778
        k(   57) = (   0.4166666  -0.1424478  -0.0000272), wk =   0.0277778
        k(   58) = (   0.4166667  -0.0443330  -0.0000319), wk =   0.0277778
        k(   59) = (   0.4166667   0.0537817  -0.0000366), wk =   0.0277778
        k(   60) = (   0.4166667   0.1518965  -0.0000413), wk =   0.0277778
        k(   61) = (   0.4166667   0.2500112  -0.0000460), wk =   0.0277778
        k(   62) = (   0.4166665  -0.8292510   0.0000057), wk =   0.0277778
        k(   63) = (   0.4166665  -0.7311363   0.0000010), wk =   0.0277778
        k(   64) = (   0.4166665  -0.6330215  -0.0000037), wk =   0.0277778
        k(   65) = (   0.4166666  -0.5349068  -0.0000084), wk =   0.0277778
        k(   66) = (   0.4166666  -0.4367920  -0.0000131), wk =   0.0277778
        k(   67) = (   0.4166666  -0.3386773  -0.0000178), wk =   0.0277778
        k(   68) = (  -0.4999999   0.2886750   0.0000270), wk =   0.0138889
        k(   69) = (  -0.4999999   0.3867898   0.0000223), wk =   0.0277778
        k(   70) = (  -0.4999999   0.4849045   0.0000176), wk =   0.0277778
        k(   71) = (  -0.4999999   0.5830193   0.0000129), wk =   0.0277778
        k(   72) = (  -0.4999999   0.6811340   0.0000082), wk =   0.0277778
        k(   73) = (  -0.4999998   0.7792488   0.0000035), wk =   0.0277778
        k(   74) = (  -0.5000001  -0.3000134   0.0000552), wk =   0.0138889

                       cryst. coord.
        k(    1) = (   0.0000000   0.0000000   0.0000000), wk =   0.0138889
        k(    2) = (  -0.0000000   0.0833333   0.0000000), wk =   0.0277778
        k(    3) = (  -0.0000000   0.1666667   0.0000000), wk =   0.0277778
        k(    4) = (  -0.0000000   0.2500000   0.0000000), wk =   0.0277778
        k(    5) = (  -0.0000000   0.3333333   0.0000000), wk =   0.0277778
        k(    6) = (   0.0000000   0.4166667   0.0000000), wk =   0.0277778
        k(    7) = (   0.0000000  -0.5000000   0.0000000), wk =   0.0138889
        k(    8) = (   0.0833333   0.0000000   0.0000000), wk =   0.0277778
        k(    9) = (   0.0833333   0.0833333   0.0000000), wk =   0.0277778
        k(   10) = (   0.0833333   0.1666667   0.0000000), wk =   0.0277778
        k(   11) = (   0.0833333   0.2500000   0.0000000), wk =   0.0277778
        k(   12) = (   0.0833333   0.3333333   0.0000000), wk =   0.0277778
        k(   13) = (   0.0833333   0.4166667   0.0000000), wk =   0.0277778
        k(   14) = (   0.0833333  -0.5000000  -0.0000000), wk =   0.0277778
        k(   15) = (   0.0833333  -0.4166667   0.0000000), wk =   0.0277778
        k(   16) = (   0.0833333  -0.3333333   0.0000000), wk =   0.0277778
        k(   17) = (   0.0833333  -0.2500000  -0.0000000), wk =   0.0277778
        k(   18) = (   0.0833333  -0.1666667   0.0000000), wk =   0.0277778
        k(   19) = (   0.0833333  -0.0833333  -0.0000000), wk =   0.0277778
        k(   20) = (   0.1666667   0.0000000   0.0000000), wk =   0.0277778
        k(   21) = (   0.1666667   0.0833333   0.0000000), wk =   0.0277778
        k(   22) = (   0.1666667   0.1666667   0.0000000), wk =   0.0277778
        k(   23) = (   0.1666667   0.2500000   0.0000000), wk =   0.0277778
        k(   24) = (   0.1666667   0.3333333   0.0000000), wk =   0.0277778
        k(   25) = (   0.1666667   0.4166667   0.0000000), wk =   0.0277778
        k(   26) = (   0.1666667  -0.5000000  -0.0000000), wk =   0.0277778
        k(   27) = (   0.1666667  -0.4166667   0.0000000), wk =   0.0277778
        k(   28) = (   0.1666667  -0.3333333   0.0000000), wk =   0.0277778
        k(   29) = (   0.1666667  -0.2500000  -0.0000000), wk =   0.0277778
        k(   30) = (   0.1666667  -0.1666667  -0.0000000), wk =   0.0277778
        k(   31) = (   0.1666667  -0.0833333   0.0000000), wk =   0.0277778
        k(   32) = (   0.2500000   0.0000000   0.0000000), wk =   0.0277778
        k(   33) = (   0.2500000   0.0833333   0.0000000), wk =   0.0277778
        k(   34) = (   0.2500000   0.1666667   0.0000000), wk =   0.0277778
        k(   35) = (   0.2500000   0.2500000   0.0000000), wk =   0.0277778
        k(   36) = (   0.2500000   0.3333333   0.0000000), wk =   0.0277778
        k(   37) = (   0.2500000   0.4166667   0.0000000), wk =   0.0277778
        k(   38) = (   0.2500000  -0.5000000  -0.0000000), wk =   0.0277778
        k(   39) = (   0.2500000  -0.4166667   0.0000000), wk =   0.0277778
        k(   40) = (   0.2500000  -0.3333333   0.0000000), wk =   0.0277778
        k(   41) = (   0.2500000  -0.2500000   0.0000000), wk =   0.0277778
        k(   42) = (   0.2500000  -0.1666667   0.0000000), wk =   0.0277778
        k(   43) = (   0.2500000  -0.0833333   0.0000000), wk =   0.0277778
        k(   44) = (   0.3333333   0.0000000   0.0000000), wk =   0.0277778
        k(   45) = (   0.3333333   0.0833333   0.0000000), wk =   0.0277778
        k(   46) = (   0.3333333   0.1666667   0.0000000), wk =   0.0277778
        k(   47) = (   0.3333333   0.2500000   0.0000000), wk =   0.0277778
        k(   48) = (   0.3333333   0.3333333   0.0000000), wk =   0.0277778
        k(   49) = (   0.3333333   0.4166667   0.0000000), wk =   0.0277778
        k(   50) = (   0.3333333  -0.5000000  -0.0000000), wk =   0.0277778
        k(   51) = (   0.3333333  -0.4166667   0.0000000), wk =   0.0277778
        k(   52) = (   0.3333333  -0.3333333   0.0000000), wk =   0.0277778
        k(   53) = (   0.3333333  -0.2500000  -0.0000000), wk =   0.0277778
        k(   54) = (   0.3333333  -0.1666667   0.0000000), wk =   0.0277778
        k(   55) = (   0.3333333  -0.0833333   0.0000000), wk =   0.0277778
        k(   56) = (   0.4166667   0.0000000   0.0000000), wk =   0.0277778
        k(   57) = (   0.4166667   0.0833333   0.0000000), wk =   0.0277778
        k(   58) = (   0.4166667   0.1666667   0.0000000), wk =   0.0277778
        k(   59) = (   0.4166667   0.2500000   0.0000000), wk =   0.0277778
        k(   60) = (   0.4166667   0.3333333   0.0000000), wk =   0.0277778
        k(   61) = (   0.4166667   0.4166667   0.0000000), wk =   0.0277778
        k(   62) = (   0.4166667  -0.5000000   0.0000000), wk =   0.0277778
        k(   63) = (   0.4166667  -0.4166667   0.0000000), wk =   0.0277778
        k(   64) = (   0.4166667  -0.3333333   0.0000000), wk =   0.0277778
        k(   65) = (   0.4166667  -0.2500000  -0.0000000), wk =   0.0277778
        k(   66) = (   0.4166667  -0.1666667   0.0000000), wk =   0.0277778
        k(   67) = (   0.4166667  -0.0833333  -0.0000000), wk =   0.0277778
        k(   68) = (  -0.5000000   0.0000000  -0.0000000), wk =   0.0138889
        k(   69) = (  -0.5000000   0.0833333  -0.0000000), wk =   0.0277778
        k(   70) = (  -0.5000000   0.1666667  -0.0000000), wk =   0.0277778
        k(   71) = (  -0.5000000   0.2500000  -0.0000000), wk =   0.0277778
        k(   72) = (  -0.5000000   0.3333333  -0.0000000), wk =   0.0277778
        k(   73) = (  -0.5000000   0.4166667  -0.0000000), wk =   0.0277778
        k(   74) = (  -0.5000000  -0.5000000  -0.0000000), wk =   0.0138889

     Dense  grid:    89129 G-vectors     FFT dimensions: (  30,  30, 240)

     Smooth grid:    31525 G-vectors     FFT dimensions: (  24,  24, 162)

     Dynamical RAM for                 wfc:       1.14 MB

     Dynamical RAM for     wfc (w. buffer):      85.54 MB

     Dynamical RAM for           str. fact:       2.72 MB

     Dynamical RAM for           local pot:       0.00 MB

     Dynamical RAM for          nlocal pot:       2.88 MB

     Dynamical RAM for                qrad:       0.68 MB

     Dynamical RAM for          rho,v,vnew:       9.02 MB

     Dynamical RAM for               rhoin:       3.01 MB

     Dynamical RAM for            rho*nmix:      21.76 MB

     Dynamical RAM for           G-vectors:       5.34 MB

     Dynamical RAM for          h,s,v(r/c):       0.26 MB

     Dynamical RAM for          <psi|beta>:       0.01 MB

     Dynamical RAM for                 psi:       4.56 MB

     Dynamical RAM for                hpsi:       4.56 MB

     Dynamical RAM for                spsi:       4.56 MB

     Dynamical RAM for      wfcinit/wfcrot:       2.89 MB

     Dynamical RAM for           addusdens:      63.92 MB

     Dynamical RAM for          addusforce:      80.92 MB

     Dynamical RAM for         addusstress:      68.00 MB

     Estimated static dynamical RAM per process >     143.27 MB

     Estimated max dynamical RAM per process >     224.20 MB

     Check: negative core charge=   -0.000005

     Initial potential from superposition of free atoms

     starting charge   29.99983, renormalised to   30.00000

     negative rho (up, down):  5.017E-04 0.000E+00
     Starting wfcs are   24 randomized atomic wfcs
     Checking if some PAW data can be deallocated... 

     total cpu time spent up to now is       10.0 secs

     Self-consistent Calculation

     iteration #  1     ecut=    45.00 Ry     beta= 0.70
     Davidson diagonalization with overlap
     ethr =  1.00E-02,  avg # of iterations =  2.7

     negative rho (up, down):  5.895E-04 0.000E+00

     total cpu time spent up to now is       18.4 secs

     total energy              =    -189.87722377 Ry
     Harris-Foulkes estimate   =    -190.05443183 Ry
     estimated scf accuracy    <       0.32368567 Ry

     iteration #  2     ecut=    45.00 Ry     beta= 0.70
     Davidson diagonalization with overlap
     ethr =  1.08E-03,  avg # of iterations =  2.4

     negative rho (up, down):  6.179E-04 0.000E+00

     total cpu time spent up to now is       26.3 secs

     total energy              =    -189.90564761 Ry
     Harris-Foulkes estimate   =    -189.96651485 Ry
     estimated scf accuracy    <       0.09915907 Ry

     iteration #  3     ecut=    45.00 Ry     beta= 0.70
     Davidson diagonalization with overlap
     ethr =  3.31E-04,  avg # of iterations =  4.7

     negative rho (up, down):  6.255E-04 0.000E+00

     total cpu time spent up to now is       35.1 secs

     total energy              =    -189.92854279 Ry
     Harris-Foulkes estimate   =    -189.94821538 Ry
     estimated scf accuracy    <       0.03823417 Ry

     iteration #  4     ecut=    45.00 Ry     beta= 0.70
     Davidson diagonalization with overlap
     ethr =  1.27E-04,  avg # of iterations =  4.2

     negative rho (up, down):  6.267E-04 0.000E+00

     total cpu time spent up to now is       43.3 secs

     total energy              =    -189.93683756 Ry
     Harris-Foulkes estimate   =    -189.94135825 Ry
     estimated scf accuracy    <       0.01043186 Ry

     iteration #  5     ecut=    45.00 Ry     beta= 0.70
     Davidson diagonalization with overlap
     ethr =  3.48E-05,  avg # of iterations =  3.3

     negative rho (up, down):  6.304E-04 0.000E+00

     total cpu time spent up to now is       51.0 secs

     total energy              =    -189.93882206 Ry
     Harris-Foulkes estimate   =    -189.93884203 Ry
     estimated scf accuracy    <       0.00006025 Ry

     iteration #  6     ecut=    45.00 Ry     beta= 0.70
     Davidson diagonalization with overlap
     ethr =  2.01E-07,  avg # of iterations =  5.1

     negative rho (up, down):  6.316E-04 0.000E+00

     total cpu time spent up to now is       62.1 secs

     total energy              =    -189.93887992 Ry
     Harris-Foulkes estimate   =    -189.93889147 Ry
     estimated scf accuracy    <       0.00002864 Ry

     iteration #  7     ecut=    45.00 Ry     beta= 0.70
     Davidson diagonalization with overlap
     ethr =  9.55E-08,  avg # of iterations =  1.8

     negative rho (up, down):  6.321E-04 0.000E+00

     total cpu time spent up to now is       68.2 secs

     total energy              =    -189.93888093 Ry
     Harris-Foulkes estimate   =    -189.93888258 Ry
     estimated scf accuracy    <       0.00000359 Ry

     iteration #  8     ecut=    45.00 Ry     beta= 0.70
     Davidson diagonalization with overlap
     ethr =  1.20E-08,  avg # of iterations =  3.0

     negative rho (up, down):  6.322E-04 0.000E+00

     total cpu time spent up to now is       76.0 secs

     End of self-consistent calculation

          k = 0.0000 0.0000 0.0000 (  3919 PWs)   bands (ev):

   -27.2917 -27.2445 -21.4447 -18.0203 -12.1180  -9.4059  -6.2358  -5.8828
    -5.7753  -5.6171  -5.5154  -3.3478  -3.2387  -2.0743  -1.9865   1.9477
     4.2203   4.4161   4.7567

     occupation numbers 
     1.0000   1.0000   1.0000   1.0000   1.0000   1.0000   1.0000   1.0000
     1.0000   1.0000   1.0000   1.0000   1.0000   1.0000   1.0000   0.0000
     0.0000   0.0000   0.0000

          k = 0.0000 0.0981-0.0000 (  3893 PWs)   bands (ev):

   -27.2283 -27.1841 -21.2962 -17.8937 -12.0235  -9.3800  -6.6017  -6.0946
    -6.0786  -5.7613  -5.7180  -3.6829  -3.5203  -2.5182  -2.2562   2.2725
     4.1490   4.8030   5.1112

     occupation numbers 
     1.0000   1.0000   1.0000   1.0000   1.0000   1.0000   1.0000   1.0000
     1.0000   1.0000   1.0000   1.0000   1.0000   1.0000   1.0000   0.0000
     0.0000   0.0000   0.0000

          k = 0.0000 0.1962-0.0000 (  3901 PWs)   bands (ev):

   -27.0516 -27.0154 -20.8513 -17.5159 -11.7591  -9.3452  -7.7354  -7.1775
    -6.6105  -6.1910  -6.0332  -4.3659  -3.8847  -3.6361  -2.7059   2.7238
     3.9655   5.5123   5.8516

     occupation numbers 
     1.0000   1.0000   1.0000   1.0000   1.0000   1.0000   1.0000   1.0000
     1.0000   1.0000   1.0000   1.0000   1.0000   1.0000   1.0000   0.0000
     0.0000   0.0000   0.0000

          k = 0.0000 0.2943-0.0000 (  3939 PWs)   bands (ev):

   -26.8010 -26.7756 -20.1133 -16.8925 -11.4295  -9.8260  -9.1594  -8.3808
    -7.2717  -6.8281  -6.4681  -5.0022  -4.6235  -4.2152  -3.1758   2.6542
     4.1205   5.5643   6.8511

     occupation numbers 
     1.0000   1.0000   1.0000   1.0000   1.0000   1.0000   1.0000   1.0000
     1.0000   1.0000   1.0000   1.0000   1.0000   1.0000   1.0000   0.0000
     0.0000   0.0000   0.0000

          k = 0.0000 0.3925-0.0000 (  3969 PWs)   bands (ev):

   -26.5388 -26.5237 -19.0926 -16.0370 -12.1229 -10.7973 -10.1469  -8.8565
    -7.8604  -7.4189  -6.8929  -5.9303  -4.9696  -4.4645  -3.5381   2.4153
     4.3023   5.3345   7.0436

     occupation numbers 
     1.0000   1.0000   1.0000   1.0000   1.0000   1.0000   1.0000   1.0000
     1.0000   1.0000   1.0000   1.0000   1.0000   1.0000   1.0000   0.0000
     0.0000   0.0000   0.0000

          k = 0.0000 0.4906-0.0000 (  3972 PWs)   bands (ev):

   -26.3384 -26.3311 -17.8356 -15.0283 -13.9064 -12.0404 -10.0305  -9.0791
    -8.2521  -7.7443  -7.1931  -6.5804  -5.1751  -4.6213  -3.7592   2.3425
     4.2230   4.7866   7.3422

     occupation numbers 
     1.0000   1.0000   1.0000   1.0000   1.0000   1.0000   1.0000   1.0000
     1.0000   1.0000   1.0000   1.0000   1.0000   1.0000   1.0000   0.0000
     0.0000   0.0000   0.0000

          k =-0.0000-0.5887 0.0000 (  3962 PWs)   bands (ev):

   -26.2628 -26.2590 -16.8437 -15.3176 -13.8502 -13.1848  -9.7713  -9.2747
    -8.3883  -7.8236  -7.3003  -6.8100  -5.2556  -4.6750  -3.8332   2.3736
     3.9884   4.6617   7.8392

     occupation numbers 
     1.0000   1.0000   1.0000   1.0000   1.0000   1.0000   1.0000   1.0000
     1.0000   1.0000   1.0000   1.0000   1.0000   1.0000   1.0000   0.0000
     0.0000   0.0000   0.0000

          k = 0.0833-0.0481-0.0000 (  3928 PWs)   bands (ev):

   -27.2322 -27.1879 -21.3025 -17.8994 -12.0290  -9.3828  -6.6568  -6.1583
    -5.9581  -5.8729  -5.6154  -3.7847  -3.4085  -2.6049  -2.1584   2.3090
     4.1963   4.9330   5.1137

     occupation numbers 
     1.0000   1.0000   1.0000   1.0000   1.0000   1.0000   1.0000   1.0000
     1.0000   1.0000   1.0000   1.0000   1.0000   1.0000   1.0000   0.0000
     0.0000   0.0000   0.0000

          k = 0.0833 0.0500-0.0000 (  3911 PWs)   bands (ev):

   -27.2302 -27.1859 -21.2993 -17.8965 -12.0261  -9.3813  -6.6238  -6.1290
    -6.0263  -5.8097  -5.6680  -3.7305  -3.4690  -2.5554  -2.2137   2.2878
     4.1717   4.8312   5.1424

     occupation numbers 
     1.0000   1.0000   1.0000   1.0000   1.0000   1.0000   1.0000   1.0000
     1.0000   1.0000   1.0000   1.0000   1.0000   1.0000   1.0000   0.0000
     0.0000   0.0000   0.0000

          k = 0.0833 0.1481-0.0000 (  3899 PWs)   bands (ev):

   -27.1083 -27.0696 -20.9994 -17.6414 -11.8436  -9.3467  -7.3397  -6.7743
    -6.5506  -6.2175  -5.7543  -4.1350  -3.9418  -3.1564  -2.6580   2.7278
     4.1172   5.2258   5.7124

     occupation numbers 
     1.0000   1.0000   1.0000   1.0000   1.0000   1.0000   1.0000   1.0000
     1.0000   1.0000   1.0000   1.0000   1.0000   1.0000   1.0000   0.0000
     0.0000   0.0000   0.0000

          k = 0.0833 0.2462-0.0000 (  3927 PWs)   bands (ev):

   -26.8931 -26.8638 -20.4046 -17.1378 -11.5311  -9.4213  -8.6677  -7.8887
    -7.3336  -6.7949  -6.1005  -4.7609  -4.4515  -3.9006  -3.2399   3.1563
     4.1708   5.8251   6.1553

     occupation numbers 
     1.0000   1.0000   1.0000   1.0000   1.0000   1.0000   1.0000   1.0000
     1.0000   1.0000   1.0000   1.0000   1.0000   1.0000   1.0000   0.0000
     0.0000   0.0000   0.0000

          k = 0.0833 0.3443-0.0000 (  3953 PWs)   bands (ev):

   -26.6357 -26.6167 -19.5209 -16.3940 -11.4612 -10.4602  -9.7233  -8.7001
    -8.0340  -7.4032  -6.6637  -5.5748  -4.8356  -4.3923  -3.6541   3.0794
     4.5231   5.8116   6.8878

     occupation numbers 
     1.0000   1.0000   1.0000   1.0000   1.0000   1.0000   1.0000   1.0000
     1.0000   1.0000   1.0000   1.0000   1.0000   1.0000   1.0000   0.0000
     0.0000   0.0000   0.0000

          k = 0.0833 0.4425-0.0000 (  3952 PWs)   bands (ev):

   -26.4041 -26.3939 -18.3699 -15.4359 -12.9949 -11.3367 -10.1355  -9.0305
    -8.5004  -7.7813  -7.2223  -6.2707  -5.1852  -4.5846  -3.9316   2.9922
     4.6630   5.3831   7.2298

     occupation numbers 
     1.0000   1.0000   1.0000   1.0000   1.0000   1.0000   1.0000   1.0000
     1.0000   1.0000   1.0000   1.0000   1.0000   1.0000   1.0000   0.0000
     0.0000   0.0000   0.0000

          k = 0.0833-0.6368 0.0000 (  3968 PWs)   bands (ev):

   -26.2671 -26.2625 -17.0864 -14.9019 -14.0843 -12.7102  -9.8266  -9.2715
    -8.7789  -7.8661  -7.5902  -6.6610  -5.3778  -4.6706  -4.0804   3.0954
     4.2529   5.2306   7.5615

     occupation numbers 
     1.0000   1.0000   1.0000   1.0000   1.0000   1.0000   1.0000   1.0000
     1.0000   1.0000   1.0000   1.0000   1.0000   1.0000   1.0000   0.0000
     0.0000   0.0000   0.0000

          k = 0.0833-0.5387 0.0000 (  3959 PWs)   bands (ev):

   -26.2696 -26.2650 -17.1122 -14.8809 -14.1024 -12.6731  -9.8416  -9.2471
    -8.8073  -7.8225  -7.6420  -6.6524  -5.3785  -4.6704  -4.0891   3.1080
     4.2646   5.2418   7.5539

     occupation numbers 
     1.0000   1.0000   1.0000   1.0000   1.0000   1.0000   1.0000   1.0000
     1.0000   1.0000   1.0000   1.0000   1.0000   1.0000   1.0000   0.0000
     0.0000   0.0000   0.0000

          k = 0.0833-0.4406 0.0000 (  3962 PWs)   bands (ev):

   -26.4108 -26.4005 -18.3976 -15.4608 -12.9509 -11.2961 -10.1403  -9.0130
    -8.5593  -7.7318  -7.2938  -6.2475  -5.1844  -4.5876  -3.9546   3.0293
     4.6957   5.4086   7.2392

     occupation numbers 
     1.0000   1.0000   1.0000   1.0000   1.0000   1.0000   1.0000   1.0000
     1.0000   1.0000   1.0000   1.0000   1.0000   1.0000   1.0000   0.0000
     0.0000   0.0000   0.0000

          k = 0.0833-0.3425 0.0000 (  3957 PWs)   bands (ev):

   -26.6443 -26.6252 -19.5430 -16.4141 -11.4511 -10.4320  -9.6829  -8.6920
    -8.0886  -7.3828  -6.7265  -5.5483  -4.8185  -4.4059  -3.6862   3.1344
     4.5714   5.8340   6.9440

     occupation numbers 
     1.0000   1.0000   1.0000   1.0000   1.0000   1.0000   1.0000   1.0000
     1.0000   1.0000   1.0000   1.0000   1.0000   1.0000   1.0000   0.0000
     0.0000   0.0000   0.0000

          k = 0.0833-0.2443 0.0000 (  3919 PWs)   bands (ev):

   -26.9013 -26.8718 -20.4205 -17.1523 -11.5432  -9.4174  -8.6255  -7.8853
    -7.3532  -6.7928  -6.1459  -4.7458  -4.4419  -3.8887  -3.2745   3.2120
     4.2495   5.7975   6.2922

     occupation numbers 
     1.0000   1.0000   1.0000   1.0000   1.0000   1.0000   1.0000   1.0000
     1.0000   1.0000   1.0000   1.0000   1.0000   1.0000   1.0000   0.0000
     0.0000   0.0000   0.0000

          k = 0.0833-0.1462 0.0000 (  3904 PWs)   bands (ev):

   -27.1140 -27.0751 -21.0090 -17.6502 -11.8519  -9.3502  -7.3598  -6.8034
    -6.5193  -6.1976  -5.7693  -4.1552  -3.9227  -3.1551  -2.6460   2.7798
     4.2041   5.2648   5.7086

     occupation numbers 
     1.0000   1.0000   1.0000   1.0000   1.0000   1.0000   1.0000   1.0000
     1.0000   1.0000   1.0000   1.0000   1.0000   1.0000   1.0000   0.0000
     0.0000   0.0000   0.0000

          k = 0.1667-0.0962-0.0000 (  3918 PWs)   bands (ev):

   -27.0664 -27.0300 -20.8766 -17.5390 -11.7816  -9.3564  -7.9191  -7.2493
    -6.4184  -6.2680  -5.8859  -4.4528  -3.7431  -3.7155  -2.5608   2.8571
     4.0514   5.8134   5.9312

     occupation numbers 
     1.0000   1.0000   1.0000   1.0000   1.0000   1.0000   1.0000   1.0000
     1.0000   1.0000   1.0000   1.0000   1.0000   1.0000   1.0000   0.0000
     0.0000   0.0000   0.0000

          k = 0.1667 0.0019-0.0000 (  3920 PWs)   bands (ev):

   -27.1192 -27.0803 -21.0181 -17.6585 -11.8595  -9.3529  -7.3536  -6.8186
    -6.5055  -6.1769  -5.8018  -4.1423  -3.9361  -3.1382  -2.6561   2.8214
     4.2653   5.3377   5.6934

     occupation numbers 
     1.0000   1.0000   1.0000   1.0000   1.0000   1.0000   1.0000   1.0000
     1.0000   1.0000   1.0000   1.0000   1.0000   1.0000   1.0000   0.0000
     0.0000   0.0000   0.0000

          k = 0.1667 0.1000-0.0000 (  3919 PWs)   bands (ev):

   -27.0587 -27.0224 -20.8637 -17.5271 -11.7698  -9.3501  -7.8197  -7.2121
    -6.5190  -6.2289  -5.9624  -4.4064  -3.8199  -3.6714  -2.6390   2.7893
     4.0068   5.6097   5.9466

     occupation numbers 
     1.0000   1.0000   1.0000   1.0000   1.0000   1.0000   1.0000   1.0000
     1.0000   1.0000   1.0000   1.0000   1.0000   1.0000   1.0000   0.0000
     0.0000   0.0000   0.0000

          k = 0.1667 0.1981-0.0000 (  3932 PWs)   bands (ev):

   -26.8983 -26.8689 -20.4140 -17.1464 -11.5405  -9.4328  -8.7521  -7.9173
    -7.2549  -6.7699  -6.0635  -4.7935  -4.4344  -3.9017  -3.1698   3.2336
     4.1547   5.9287   6.2424

     occupation numbers 
     1.0000   1.0000   1.0000   1.0000   1.0000   1.0000   1.0000   1.0000
     1.0000   1.0000   1.0000   1.0000   1.0000   1.0000   1.0000   0.0000
     0.0000   0.0000   0.0000

          k = 0.1667 0.2962-0.0000 (  3938 PWs)   bands (ev):

   -26.6756 -26.6552 -19.6729 -16.5218 -11.3408  -9.9010  -9.7822  -8.4863
    -8.2595  -7.6745  -6.4429  -5.5365  -4.6798  -4.2353  -3.9590   4.1238
     4.3609   6.3037   7.2071

     occupation numbers 
     1.0000   1.0000   1.0000   1.0000   1.0000   1.0000   1.0000   1.0000
     1.0000   1.0000   1.0000   1.0000   1.0000   1.0000   1.0000   0.0000
     0.0000   0.0000   0.0000

          k = 0.1667 0.3943-0.0000 (  3939 PWs)   bands (ev):

   -26.4472 -26.4352 -18.6531 -15.6667 -12.0833 -10.9353 -10.0921  -9.1779
    -8.8371  -8.2944  -7.0583  -6.1060  -5.0736  -4.6154  -4.3303   4.1861
     5.0639   6.7894   6.9178

     occupation numbers 
     1.0000   1.0000   1.0000   1.0000   1.0000   1.0000   1.0000   1.0000
     1.0000   1.0000   1.0000   1.0000   1.0000   1.0000   1.0000   0.0000
     0.0000   0.0000   0.0000

          k = 0.1667-0.6849 0.0000 (  3942 PWs)   bands (ev):

   -26.2770 -26.2711 -17.4082 -14.6592 -13.6652 -12.0443 -10.0113  -9.7212
    -9.1618  -8.3639  -7.6583  -6.4258  -5.5283  -4.7264  -4.5353   4.2433
     5.1848   6.6299   6.9658

     occupation numbers 
     1.0000   1.0000   1.0000   1.0000   1.0000   1.0000   1.0000   1.0000
     1.0000   1.0000   1.0000   1.0000   1.0000   1.0000   1.0000   0.0000
     0.0000   0.0000   0.0000

          k = 0.1667-0.5868 0.0000 (  3946 PWs)   bands (ev):

   -26.2167 -26.2134 -16.4759 -14.9360 -13.4928 -13.0735 -10.2734  -9.5434
    -9.2615  -8.3727  -7.9419  -6.5154  -5.7027  -4.7105  -4.6628   4.4073
     4.8975   6.7205   6.9817

     occupation numbers 
     1.0000   1.0000   1.0000   1.0000   1.0000   1.0000   1.0000   1.0000
     1.0000   1.0000   1.0000   1.0000   1.0000   1.0000   1.0000   0.0000
     0.0000   0.0000   0.0000

          k = 0.1667-0.4887 0.0000 (  3941 PWs)   bands (ev):

   -26.2862 -26.2802 -17.4672 -14.7077 -13.5942 -11.9604 -10.0535  -9.7301
    -9.1696  -8.3419  -7.7070  -6.3900  -5.5294  -4.7013  -4.5800   4.2561
     5.2199   6.6822   6.9435

     occupation numbers 
     1.0000   1.0000   1.0000   1.0000   1.0000   1.0000   1.0000   1.0000
     1.0000   1.0000   1.0000   1.0000   1.0000   1.0000   1.0000   0.0000
     0.0000   0.0000   0.0000

          k = 0.1667-0.3906 0.0000 (  3938 PWs)   bands (ev):

   -26.4626 -26.4504 -18.7037 -15.7138 -12.0156 -10.8827 -10.0822  -9.1915
    -8.8906  -8.2752  -7.1106  -6.0637  -5.0466  -4.6108  -4.3750   4.2196
     5.1229   6.7782   7.0088

     occupation numbers 
     1.0000   1.0000   1.0000   1.0000   1.0000   1.0000   1.0000   1.0000
     1.0000   1.0000   1.0000   1.0000   1.0000   1.0000   1.0000   0.0000
     0.0000   0.0000   0.0000

          k = 0.1667-0.2925 0.0000 (  3926 PWs)   bands (ev):

   -26.6925 -26.6718 -19.7113 -16.5573 -11.3612  -9.8935  -9.7319  -8.5178
    -8.2335  -7.6731  -6.4844  -5.5106  -4.6487  -4.2297  -3.9772   4.1731
     4.4720   6.3602   7.3206

     occupation numbers 
     1.0000   1.0000   1.0000   1.0000   1.0000   1.0000   1.0000   1.0000
     1.0000   1.0000   1.0000   1.0000   1.0000   1.0000   1.0000   0.0000
     0.0000   0.0000   0.0000

          k = 0.1667-0.1943-0.0000 (  3920 PWs)   bands (ev):

   -26.9122 -26.8826 -20.4397 -17.1701 -11.5629  -9.4421  -8.8085  -7.9358
    -7.1917  -6.7466  -6.0646  -4.8140  -4.4082  -3.8916  -3.1252   3.3536
     4.2224   6.0115   6.4721

     occupation numbers 
     1.0000   1.0000   1.0000   1.0000   1.0000   1.0000   1.0000   1.0000
     1.0000   1.0000   1.0000   1.0000   1.0000   1.0000   1.0000   0.0000
     0.0000   0.0000   0.0000

          k = 0.2500-0.1443-0.0000 (  3923 PWs)   bands (ev):

   -26.8316 -26.8057 -20.1707 -16.9460 -11.4909  -9.9566  -9.2902  -8.4576
    -7.0027  -6.8655  -6.2616  -5.1033  -4.6387  -4.0529  -2.9937   2.9821
     4.1586   5.9410   6.8740

     occupation numbers 
     1.0000   1.0000   1.0000   1.0000   1.0000   1.0000   1.0000   1.0000
     1.0000   1.0000   1.0000   1.0000   1.0000   1.0000   1.0000   0.0000
     0.0000   0.0000   0.0000

          k = 0.2500-0.0462-0.0000 (  3906 PWs)   bands (ev):

   -26.9197 -26.8899 -20.4549 -17.1837 -11.5735  -9.4354  -8.7624  -7.9212
    -7.2160  -6.7450  -6.1175  -4.7946  -4.3954  -3.8907  -3.1604   3.3952
     4.2875   6.0279   6.5306

     occupation numbers 
     1.0000   1.0000   1.0000   1.0000   1.0000   1.0000   1.0000   1.0000
     1.0000   1.0000   1.0000   1.0000   1.0000   1.0000   1.0000   0.0000
     0.0000   0.0000   0.0000

          k = 0.2500 0.0519-0.0000 (  3925 PWs)   bands (ev):

   -26.9140 -26.8843 -20.4451 -17.1745 -11.5631  -9.4225  -8.6616  -7.8994
    -7.3017  -6.7641  -6.1629  -4.7582  -4.4136  -3.8877  -3.2401   3.3302
     4.3001   5.9098   6.4598

     occupation numbers 
     1.0000   1.0000   1.0000   1.0000   1.0000   1.0000   1.0000   1.0000
     1.0000   1.0000   1.0000   1.0000   1.0000   1.0000   1.0000   0.0000
     0.0000   0.0000   0.0000

          k = 0.2500 0.1500-0.0000 (  3932 PWs)   bands (ev):

   -26.8156 -26.7900 -20.1414 -16.9183 -11.4584  -9.8861  -9.2253  -8.4186
    -7.1405  -6.8467  -6.3660  -5.0518  -4.6299  -4.1378  -3.0884   2.8199
     4.1459   5.7399   6.8620

     occupation numbers 
     1.0000   1.0000   1.0000   1.0000   1.0000   1.0000   1.0000   1.0000
     1.0000   1.0000   1.0000   1.0000   1.0000   1.0000   1.0000   0.0000
     0.0000   0.0000   0.0000

          k = 0.2500 0.2481-0.0000 (  3934 PWs)   bands (ev):

   -26.6484 -26.6294 -19.5465 -16.4185 -11.5185 -10.5332  -9.7662  -8.7356
    -7.8994  -7.3640  -6.5854  -5.6035  -4.8486  -4.3357  -3.5625   3.2520
     4.4809   6.0267   6.9458

     occupation numbers 
     1.0000   1.0000   1.0000   1.0000   1.0000   1.0000   1.0000   1.0000
     1.0000   1.0000   1.0000   1.0000   1.0000   1.0000   1.0000   0.0000
     0.0000   0.0000   0.0000

          k = 0.2500 0.3462-0.0000 (  3941 PWs)   bands (ev):

   -26.4547 -26.4427 -18.6701 -15.6845 -12.1486 -10.9645 -10.0913  -9.1555
    -8.7980  -8.2539  -7.0307  -6.1161  -5.0843  -4.5890  -4.2822   4.2894
     5.0102   6.8629   7.1458

     occupation numbers 
     1.0000   1.0000   1.0000   1.0000   1.0000   1.0000   1.0000   1.0000
     1.0000   1.0000   1.0000   1.0000   1.0000   1.0000   1.0000   0.0000
     0.0000   0.0000   0.0000

          k = 0.2500-0.7330 0.0000 (  3939 PWs)   bands (ev):

   -26.2868 -26.2803 -17.5447 -14.7462 -13.0289 -11.9694 -10.0232  -9.9156
    -9.5734  -8.5245  -7.6043  -6.3683  -5.3721  -5.0914  -4.5674   4.5811
     5.9001   6.6363   8.5415

     occupation numbers 
     1.0000   1.0000   1.0000   1.0000   1.0000   1.0000   1.0000   1.0000
     1.0000   1.0000   1.0000   1.0000   1.0000   1.0000   1.0000   0.0000
     0.0000   0.0000   0.0000

          k = 0.2500-0.6349 0.0000 (  3925 PWs)   bands (ev):

   -26.1922 -26.1889 -16.3435 -14.2348 -13.6418 -12.8318 -10.9058 -10.3186
    -9.1632  -8.5975  -8.1263  -6.3091  -5.7878  -5.3264  -4.6556   4.7105
     5.6759   7.3913   8.1647

     occupation numbers 
     1.0000   1.0000   1.0000   1.0000   1.0000   1.0000   1.0000   1.0000
     1.0000   1.0000   1.0000   1.0000   1.0000   1.0000   1.0000   0.0000
     0.0000   0.0000   0.0000

          k = 0.2500-0.5368 0.0000 (  3917 PWs)   bands (ev):

   -26.1990 -26.1956 -16.4211 -14.1534 -13.7464 -12.7144 -10.9157 -10.3343
    -9.1598  -8.5917  -8.1446  -6.2806  -5.7899  -5.3284  -4.6621   4.7135
     5.6682   7.4030   8.1815

     occupation numbers 
     1.0000   1.0000   1.0000   1.0000   1.0000   1.0000   1.0000   1.0000
     1.0000   1.0000   1.0000   1.0000   1.0000   1.0000   1.0000   0.0000
     0.0000   0.0000   0.0000

          k = 0.2500-0.4387 0.0000 (  3933 PWs)   bands (ev):

   -26.3048 -26.2982 -17.6307 -14.8354 -12.9402 -11.8913 -10.0473  -9.9351
    -9.5487  -8.5178  -7.6340  -6.3262  -5.3459  -5.0906  -4.5832   4.5893
     5.8868   6.6959   8.6138

     occupation numbers 
     1.0000   1.0000   1.0000   1.0000   1.0000   1.0000   1.0000   1.0000
     1.0000   1.0000   1.0000   1.0000   1.0000   1.0000   1.0000   0.0000
     0.0000   0.0000   0.0000

          k = 0.2500-0.3406-0.0000 (  3930 PWs)   bands (ev):

   -26.4784 -26.4661 -18.7384 -15.7510 -12.1494 -10.9500 -10.0792  -9.1338
    -8.8186  -8.1901  -7.0558  -6.0853  -5.0686  -4.5598  -4.2720   4.3854
     5.0354   6.9225   7.4684

     occupation numbers 
     1.0000   1.0000   1.0000   1.0000   1.0000   1.0000   1.0000   1.0000
     1.0000   1.0000   1.0000   1.0000   1.0000   1.0000   1.0000   0.0000
     0.0000   0.0000   0.0000

          k = 0.2500-0.2425-0.0000 (  3927 PWs)   bands (ev):

   -26.6711 -26.6517 -19.5955 -16.4650 -11.5690 -10.5827  -9.7769  -8.7611
    -7.8066  -7.3160  -6.5586  -5.6094  -4.8448  -4.2876  -3.4973   3.4662
     4.4694   6.2849   7.0743

     occupation numbers 
     1.0000   1.0000   1.0000   1.0000   1.0000   1.0000   1.0000   1.0000
     1.0000   1.0000   1.0000   1.0000   1.0000   1.0000   1.0000   0.0000
     0.0000   0.0000   0.0000

          k = 0.3333-0.1925-0.0000 (  3931 PWs)   bands (ev):

   -26.5861 -26.5706 -19.1979 -16.1409 -12.2816 -10.9324 -10.2073  -8.9191
    -7.5316  -7.4243  -6.6328  -5.9821  -4.9869  -4.2863  -3.3337   2.8732
     4.3608   5.6501   7.3198

     occupation numbers 
     1.0000   1.0000   1.0000   1.0000   1.0000   1.0000   1.0000   1.0000
     1.0000   1.0000   1.0000   1.0000   1.0000   1.0000   1.0000   0.0000
     0.0000   0.0000   0.0000

          k = 0.3333-0.0943-0.0000 (  3923 PWs)   bands (ev):

   -26.6790 -26.6595 -19.6165 -16.4835 -11.5545 -10.5572  -9.7405  -8.7527
    -7.8515  -7.2989  -6.6216  -5.5846  -4.8286  -4.3032  -3.5273   3.5078
     4.5083   6.3011   7.1553

     occupation numbers 
     1.0000   1.0000   1.0000   1.0000   1.0000   1.0000   1.0000   1.0000
     1.0000   1.0000   1.0000   1.0000   1.0000   1.0000   1.0000   0.0000
     0.0000   0.0000   0.0000

          k = 0.3333 0.0038-0.0000 (  3914 PWs)   bands (ev):

   -26.7079 -26.6869 -19.7478 -16.5901 -11.3762  -9.8508  -9.6930  -8.5545
    -8.2200  -7.6697  -6.5319  -5.4823  -4.6164  -4.2192  -4.0096   4.2625
     4.5144   6.4489   7.5379

     occupation numbers 
     1.0000   1.0000   1.0000   1.0000   1.0000   1.0000   1.0000   1.0000
     1.0000   1.0000   1.0000   1.0000   1.0000   1.0000   1.0000   0.0000
     0.0000   0.0000   0.0000

          k = 0.3333 0.1019-0.0000 (  3934 PWs)   bands (ev):

   -26.6650 -26.6456 -19.5896 -16.4571 -11.4938 -10.4793  -9.6894  -8.7191
    -7.9998  -7.3240  -6.7129  -5.5522  -4.8152  -4.3650  -3.6245   3.3487
     4.5677   6.0659   7.0851

     occupation numbers 
     1.0000   1.0000   1.0000   1.0000   1.0000   1.0000   1.0000   1.0000
     1.0000   1.0000   1.0000   1.0000   1.0000   1.0000   1.0000   0.0000
     0.0000   0.0000   0.0000

          k = 0.3333 0.2000-0.0000 (  3950 PWs)   bands (ev):

   -26.5614 -26.5461 -19.1440 -16.0868 -12.2010 -10.8629 -10.1778  -8.8882
    -7.6969  -7.4235  -6.7611  -5.9562  -4.9791  -4.3776  -3.4378   2.6469
     4.3568   5.4657   7.1714

     occupation numbers 
     1.0000   1.0000   1.0000   1.0000   1.0000   1.0000   1.0000   1.0000
     1.0000   1.0000   1.0000   1.0000   1.0000   1.0000   1.0000   0.0000
     0.0000   0.0000   0.0000

          k = 0.3333 0.2981-0.0000 (  3942 PWs)   bands (ev):

   -26.4248 -26.4146 -18.4212 -15.4926 -13.0719 -11.4107 -10.1566  -9.0453
    -8.3442  -7.7577  -7.1085  -6.2899  -5.1799  -4.5238  -3.8328   3.2188
     4.6116   5.6184   7.3658

     occupation numbers 
     1.0000   1.0000   1.0000   1.0000   1.0000   1.0000   1.0000   1.0000
     1.0000   1.0000   1.0000   1.0000   1.0000   1.0000   1.0000   0.0000
     0.0000   0.0000   0.0000

          k = 0.3333-0.7811 0.0000 (  3943 PWs)   bands (ev):

   -26.2924 -26.2866 -17.4560 -14.7461 -13.6839 -12.0918  -9.9514  -9.6937
    -9.1263  -8.3265  -7.6173  -6.4416  -5.5098  -4.6964  -4.4781   4.2863
     5.2891   6.7554   7.1691

     occupation numbers 
     1.0000   1.0000   1.0000   1.0000   1.0000   1.0000   1.0000   1.0000
     1.0000   1.0000   1.0000   1.0000   1.0000   1.0000   1.0000   0.0000
     0.0000   0.0000   0.0000

          k = 0.3333-0.6830 0.0000 (  3930 PWs)   bands (ev):

   -26.2002 -26.1969 -16.3879 -14.3506 -13.5401 -12.8575 -10.8854 -10.2588
    -9.1792  -8.5990  -8.1085  -6.3183  -5.7753  -5.2999  -4.6495   4.6753
     5.7245   7.4723   8.3230

     occupation numbers 
     1.0000   1.0000   1.0000   1.0000   1.0000   1.0000   1.0000   1.0000
     1.0000   1.0000   1.0000   1.0000   1.0000   1.0000   1.0000   0.0000
     0.0000   0.0000   0.0000

          k = 0.3333-0.5849 0.0000 (  3909 PWs)   bands (ev):

   -26.1723 -26.1697 -15.8535 -13.9775 -13.9443 -12.8394 -11.0879 -11.0681
    -8.6762  -8.6463  -8.6340  -5.9359  -5.8716  -5.8590  -4.6750   5.1026
     5.1704   8.3404   8.9677

     occupation numbers 
     1.0000   1.0000   1.0000   1.0000   1.0000   1.0000   1.0000   1.0000
     1.0000   1.0000   1.0000   1.0000   1.0000   1.0000   1.0000   0.0000
     0.0000   0.0000   0.0000

          k = 0.3333-0.4868-0.0000 (  3930 PWs)   bands (ev):

   -26.2157 -26.2123 -16.5082 -14.4171 -13.5202 -12.7646 -10.8727 -10.2118
    -9.1917  -8.5945  -8.1102  -6.2990  -5.7624  -5.2735  -4.6520   4.6405
     5.7667   7.5026   8.4913

     occupation numbers 
     1.0000   1.0000   1.0000   1.0000   1.0000   1.0000   1.0000   1.0000
     1.0000   1.0000   1.0000   1.0000   1.0000   1.0000   1.0000   0.0000
     0.0000   0.0000   0.0000

          k = 0.3333-0.3887-0.0000 (  3940 PWs)   bands (ev):

   -26.3188 -26.3127 -17.5647 -14.8782 -13.6384 -12.0638  -9.9430  -9.6536
    -9.1075  -8.2582  -7.6277  -6.4223  -5.4887  -4.6475  -4.4579   4.2980
     5.4329   6.8917   7.3856

     occupation numbers 
     1.0000   1.0000   1.0000   1.0000   1.0000   1.0000   1.0000   1.0000
     1.0000   1.0000   1.0000   1.0000   1.0000   1.0000   1.0000   0.0000
     0.0000   0.0000   0.0000

          k = 0.3333-0.2906-0.0000 (  3933 PWs)   bands (ev):

   -26.4543 -26.4438 -18.5027 -15.5791 -13.1045 -11.4497 -10.1811  -9.0528
    -8.2324  -7.7009  -7.0491  -6.2867  -5.1716  -4.4631  -3.7541   3.4589
     4.5855   5.8880   7.5413

     occupation numbers 
     1.0000   1.0000   1.0000   1.0000   1.0000   1.0000   1.0000   1.0000
     1.0000   1.0000   1.0000   1.0000   1.0000   1.0000   1.0000   0.0000
     0.0000   0.0000   0.0000

          k = 0.4167-0.2406-0.0000 (  3928 PWs)   bands (ev):

   -26.3987 -26.3912 -18.0142 -15.2633 -13.9381 -12.1509 -10.0969  -9.1423
    -7.8871  -7.7346  -6.8978  -6.6028  -5.1897  -4.4314  -3.5425   2.8986
     4.1758   5.2509   7.5285

     occupation numbers 
     1.0000   1.0000   1.0000   1.0000   1.0000   1.0000   1.0000   1.0000
     1.0000   1.0000   1.0000   1.0000   1.0000   1.0000   1.0000   0.0000
     0.0000   0.0000   0.0000

          k = 0.4167-0.1424-0.0000 (  3935 PWs)   bands (ev):

   -26.4604 -26.4498 -18.5286 -15.6007 -13.0641 -11.4129 -10.1852  -9.0401
    -8.2797  -7.6647  -7.1072  -6.2679  -5.1682  -4.4694  -3.7746   3.4857
     4.6120   5.9148   7.5767

     occupation numbers 
     1.0000   1.0000   1.0000   1.0000   1.0000   1.0000   1.0000   1.0000
     1.0000   1.0000   1.0000   1.0000   1.0000   1.0000   1.0000   0.0000
     0.0000   0.0000   0.0000

          k = 0.4167-0.0443-0.0000 (  3927 PWs)   bands (ev):

   -26.4925 -26.4799 -18.7862 -15.7935 -12.0804 -10.8987 -10.0639  -9.1443
    -8.8781  -8.1693  -7.1114  -6.0448  -5.0451  -4.5558  -4.3142   4.4140
     5.0707   6.9626   7.5260

     occupation numbers 
     1.0000   1.0000   1.0000   1.0000   1.0000   1.0000   1.0000   1.0000
     1.0000   1.0000   1.0000   1.0000   1.0000   1.0000   1.0000   0.0000
     0.0000   0.0000   0.0000

          k = 0.4167 0.0538-0.0000 (  3934 PWs)   bands (ev):

   -26.4842 -26.4717 -18.7685 -15.7742 -12.0115 -10.8603 -10.0659  -9.1839
    -8.9072  -8.2144  -7.1384  -6.0331  -5.0340  -4.5795  -4.3699   4.3470
     5.1085   6.9012   7.2842

     occupation numbers 
     1.0000   1.0000   1.0000   1.0000   1.0000   1.0000   1.0000   1.0000
     1.0000   1.0000   1.0000   1.0000   1.0000   1.0000   1.0000   0.0000
     0.0000   0.0000   0.0000

          k = 0.4167 0.1519-0.0000 (  3947 PWs)   bands (ev):

   -26.4376 -26.4271 -18.4748 -15.5391 -12.9874 -11.3335 -10.1657  -9.0156
    -8.4499  -7.6708  -7.2392  -6.2479  -5.1753  -4.5337  -3.8761   3.2832
     4.6698   5.6709   7.4087

     occupation numbers 
     1.0000   1.0000   1.0000   1.0000   1.0000   1.0000   1.0000   1.0000
     1.0000   1.0000   1.0000   1.0000   1.0000   1.0000   1.0000   0.0000
     0.0000   0.0000   0.0000

          k = 0.4167 0.2500-0.0000 (  3947 PWs)   bands (ev):

   -26.3671 -26.3597 -17.9225 -15.1415 -13.9252 -12.0955 -10.0641  -9.1111
    -8.0682  -7.7436  -7.0412  -6.5930  -5.1837  -4.5277  -3.6515   2.6236
     4.2140   5.0069   7.4227

     occupation numbers 
     1.0000   1.0000   1.0000   1.0000   1.0000   1.0000   1.0000   1.0000
     1.0000   1.0000   1.0000   1.0000   1.0000   1.0000   1.0000   0.0000
     0.0000   0.0000   0.0000

          k = 0.4167-0.8293 0.0000 (  3947 PWs)   bands (ev):

   -26.2939 -26.2894 -17.1874 -15.0352 -14.0721 -12.7544  -9.8485  -9.2885
    -8.6192  -7.8613  -7.4523  -6.6687  -5.3636  -4.6107  -3.9813   3.3880
     4.1936   5.5018   7.6598

     occupation numbers 
     1.0000   1.0000   1.0000   1.0000   1.0000   1.0000   1.0000   1.0000
     1.0000   1.0000   1.0000   1.0000   1.0000   1.0000   1.0000   0.0000
     0.0000   0.0000   0.0000

          k = 0.4167-0.7311 0.0000 (  3936 PWs)   bands (ev):

   -26.2383 -26.2350 -16.6035 -14.9997 -13.5432 -13.0368 -10.1826  -9.5139
    -9.2705  -8.3075  -7.9245  -6.5223  -5.6727  -4.6832  -4.6067   4.3468
     5.1750   6.8808   7.1649

     occupation numbers 
     1.0000   1.0000   1.0000   1.0000   1.0000   1.0000   1.0000   1.0000
     1.0000   1.0000   1.0000   1.0000   1.0000   1.0000   1.0000   0.0000
     0.0000   0.0000   0.0000

          k = 0.4167-0.6330-0.0000 (  3923 PWs)   bands (ev):

   -26.2131 -26.2096 -16.5332 -14.2366 -13.7002 -12.6301 -10.9071 -10.2910
    -9.1715  -8.5882  -8.1431  -6.2645  -5.7789  -5.3034  -4.6613   4.6856
     5.7031   7.4785   8.3843

     occupation numbers 
     1.0000   1.0000   1.0000   1.0000   1.0000   1.0000   1.0000   1.0000
     1.0000   1.0000   1.0000   1.0000   1.0000   1.0000   1.0000   0.0000
     0.0000   0.0000   0.0000

          k = 0.4167-0.5349-0.0000 (  3937 PWs)   bands (ev):

   -26.2218 -26.2184 -16.5762 -14.3739 -13.5854 -12.6552 -10.8846 -10.2281
    -9.1873  -8.5895  -8.1267  -6.2737  -5.7640  -5.2749  -4.6574   4.6472
     5.7535   7.5012   8.5322

     occupation numbers 
     1.0000   1.0000   1.0000   1.0000   1.0000   1.0000   1.0000   1.0000
     1.0000   1.0000   1.0000   1.0000   1.0000   1.0000   1.0000   0.0000
     0.0000   0.0000   0.0000

          k = 0.4167-0.4368-0.0000 (  3941 PWs)   bands (ev):

   -26.2621 -26.2588 -16.7316 -15.0801 -13.5651 -13.0184 -10.0936  -9.4948
    -9.2698  -8.2258  -7.9208  -6.5251  -5.6419  -4.6378  -4.5676   4.2848
     5.4288   6.9949   7.3478

     occupation numbers 
     1.0000   1.0000   1.0000   1.0000   1.0000   1.0000   1.0000   1.0000
     1.0000   1.0000   1.0000   1.0000   1.0000   1.0000   1.0000   0.0000
     0.0000   0.0000   0.0000

          k = 0.4167-0.3387-0.0000 (  3943 PWs)   bands (ev):

   -26.3260 -26.3214 -17.3182 -15.1578 -14.0694 -12.7633  -9.8844  -9.2924
    -8.4788  -7.8243  -7.3552  -6.6641  -5.3496  -4.5459  -3.8910   3.6610
     4.1743   5.7588   7.7757

     occupation numbers 
     1.0000   1.0000   1.0000   1.0000   1.0000   1.0000   1.0000   1.0000
     1.0000   1.0000   1.0000   1.0000   1.0000   1.0000   1.0000   0.0000
     0.0000   0.0000   0.0000

          k =-0.5000 0.2887 0.0000 (  3938 PWs)   bands (ev):

   -26.3279 -26.3242 -17.1327 -15.4805 -13.9569 -13.1878  -9.8594  -9.3264
    -8.0113  -7.8122  -6.9930  -6.8231  -5.2681  -4.4809  -3.6125   3.0083
     3.8694   5.1931   7.8497

     occupation numbers 
     1.0000   1.0000   1.0000   1.0000   1.0000   1.0000   1.0000   1.0000
     1.0000   1.0000   1.0000   1.0000   1.0000   1.0000   1.0000   0.0000
     0.0000   0.0000   0.0000

          k =-0.5000 0.3868 0.0000 (  3939 PWs)   bands (ev):

   -26.3283 -26.3236 -17.3407 -15.1447 -14.0792 -12.7314  -9.8955  -9.2772
    -8.4996  -7.8045  -7.3817  -6.6578  -5.3490  -4.5473  -3.8985   3.6666
     4.1889   5.7687   7.7885

     occupation numbers 
     1.0000   1.0000   1.0000   1.0000   1.0000   1.0000   1.0000   1.0000
     1.0000   1.0000   1.0000   1.0000   1.0000   1.0000   1.0000   0.0000
     0.0000   0.0000   0.0000

          k =-0.5000 0.4849 0.0000 (  3936 PWs)   bands (ev):

   -26.3272 -26.3210 -17.6189 -14.9108 -13.5834 -11.9870  -9.9798  -9.6539
    -9.1246  -8.2299  -7.6806  -6.3907  -5.4880  -4.6271  -4.4974   4.3118
     5.4405   6.9622   7.3560

     occupation numbers 
     1.0000   1.0000   1.0000   1.0000   1.0000   1.0000   1.0000   1.0000
     1.0000   1.0000   1.0000   1.0000   1.0000   1.0000   1.0000   0.0000
     0.0000   0.0000   0.0000

          k =-0.5000 0.5830 0.0000 (  3937 PWs)   bands (ev):

   -26.3212 -26.3144 -17.7109 -14.9102 -12.8565 -11.8162 -10.0601  -9.9723
    -9.5242  -8.5111  -7.6624  -6.2862  -5.3222  -5.0909  -4.5967   4.6089
     5.8545   6.7640   8.8949

     occupation numbers 
     1.0000   1.0000   1.0000   1.0000   1.0000   1.0000   1.0000   1.0000
     1.0000   1.0000   1.0000   1.0000   1.0000   1.0000   1.0000   0.0000
     0.0000   0.0000   0.0000

          k =-0.5000 0.6811 0.0000 (  3931 PWs)   bands (ev):

   -26.3102 -26.3040 -17.5691 -14.8258 -13.5591 -11.9310 -10.0318  -9.7021
    -9.1509  -8.2769  -7.7180  -6.3743  -5.5101  -4.6485  -4.5648   4.3115
     5.3337   6.8915   7.1030

     occupation numbers 
     1.0000   1.0000   1.0000   1.0000   1.0000   1.0000   1.0000   1.0000
     1.0000   1.0000   1.0000   1.0000   1.0000   1.0000   1.0000   0.0000
     0.0000   0.0000   0.0000

          k =-0.5000 0.7792 0.0000 (  3949 PWs)   bands (ev):

   -26.2988 -26.2941 -17.2357 -15.0022 -14.0987 -12.6856  -9.8741  -9.2510
    -8.6667  -7.8077  -7.5209  -6.6539  -5.3636  -4.6122  -3.9974   3.4078
     4.2185   5.5226   7.6631

     occupation numbers 
     1.0000   1.0000   1.0000   1.0000   1.0000   1.0000   1.0000   1.0000
     1.0000   1.0000   1.0000   1.0000   1.0000   1.0000   1.0000   0.0000
     0.0000   0.0000   0.0000

          k =-0.5000-0.3000 0.0001 (  3950 PWs)   bands (ev):

   -26.2938 -26.2901 -16.9857 -15.3930 -13.9097 -13.1857  -9.8155  -9.3011
    -8.1975  -7.8230  -7.1412  -6.8185  -5.2633  -4.5790  -3.7231   2.6887
     3.9347   4.9302   7.8303

     occupation numbers 
     1.0000   1.0000   1.0000   1.0000   1.0000   1.0000   1.0000   1.0000
     1.0000   1.0000   1.0000   1.0000   1.0000   1.0000   1.0000   0.0000
     0.0000   0.0000   0.0000

     the Fermi energy is     0.1750 ev

!    total energy              =    -189.93888207 Ry
     Harris-Foulkes estimate   =    -189.93888222 Ry
     estimated scf accuracy    <       0.00000017 Ry

     total all-electron energy =      -701.910997 Ry

     The total energy is the sum of the following terms:

     one-electron contribution =   -1502.51795164 Ry
     hartree contribution      =     760.89428844 Ry
     xc contribution           =     -37.15117618 Ry
     ewald contribution        =     633.83243663 Ry
     one-center paw contrib.   =     -44.99647932 Ry
      -> PAW hartree energy AE =     117.40981944 Ry
      -> PAW hartree energy PS =    -117.33017022 Ry
      -> PAW xc energy AE      =     -80.43057723 Ry
      -> PAW xc energy PS      =      35.35444868 Ry
      -> total E_H with PAW    =     760.97393766 Ry
      -> total E_XC with PAW   =     -82.22730473 Ry
     smearing contrib. (-TS)   =      -0.00000000 Ry

     convergence has been achieved in   8 iterations

     negative rho (up, down):  6.322E-04 0.000E+00

     Forces acting on atoms (cartesian axes, Ry/au):

     atom    1 type  1   force =    -0.00002705    0.00090816   -0.00920859
     atom    2 type  1   force =     0.00039440   -0.00148997    0.00060640
     atom    3 type  1   force =     0.00002650   -0.00090907    0.00937690
     atom    4 type  1   force =    -0.00039650    0.00148906   -0.00055342
     atom    5 type  2   force =    -0.00017743    0.00030361    0.01758636
     atom    6 type  2   force =     0.00018008   -0.00030179   -0.01780764
     The non-local contrib.  to forces
     atom    1 type  1   force =    -0.00586409    0.01056163   -0.40570207
     atom    2 type  1   force =     0.00555162   -0.01006750    0.08289184
     atom    3 type  1   force =     0.00586312   -0.01056276    0.40562641
     atom    4 type  1   force =    -0.00555318    0.01006609   -0.08309438
     atom    5 type  2   force =     0.00123743   -0.00211140    3.17042207
     atom    6 type  2   force =    -0.00121136    0.00212641   -3.17093698
     The ionic contribution  to forces
     atom    1 type  1   force =    -0.06809871    0.11531597  -13.30366689
     atom    2 type  1   force =     0.07090089   -0.11981890   -9.38532622
     atom    3 type  1   force =     0.06813811   -0.11529238   13.30382641
     atom    4 type  1   force =    -0.07090874    0.11981176    9.38530525
     atom    5 type  2   force =    -0.00822324    0.01345741  -66.65837010
     atom    6 type  2   force =     0.00819168   -0.01347386   66.65823157
     The local contribution  to forces
     atom    1 type  1   force =     0.07352485   -0.12425807   13.69194315
     atom    2 type  1   force =    -0.07564692    0.12768644    9.30431282
     atom    3 type  1   force =    -0.07356283    0.12423495  -13.69264040
     atom    4 type  1   force =     0.07565421   -0.12767788   -9.30479244
     atom    5 type  2   force =     0.00681401   -0.01105104   63.51603039
     atom    6 type  2   force =    -0.00680473    0.01105250  -63.51598753
     The core correction contribution to forces
     atom    1 type  1   force =     0.00041223   -0.00071412    0.00833427
     atom    2 type  1   force =    -0.00040939    0.00070618   -0.00124241
     atom    3 type  1   force =    -0.00041287    0.00071279   -0.00840772
     atom    4 type  1   force =     0.00040866   -0.00070736    0.00110900
     atom    5 type  2   force =    -0.00000404    0.00000646   -0.01024211
     atom    6 type  2   force =     0.00000365   -0.00000646    0.01024315
     The Hubbard contrib.    to forces
     atom    1 type  1   force =     0.00000000    0.00000000    0.00000000
     atom    2 type  1   force =     0.00000000    0.00000000    0.00000000
     atom    3 type  1   force =     0.00000000    0.00000000    0.00000000
     atom    4 type  1   force =     0.00000000    0.00000000    0.00000000
     atom    5 type  2   force =     0.00000000    0.00000000    0.00000000
     atom    6 type  2   force =     0.00000000    0.00000000    0.00000000
     The SCF correction term to forces
     atom    1 type  1   force =    -0.00000132    0.00000246   -0.00021492
     atom    2 type  1   force =    -0.00000179    0.00000352   -0.00012751
     atom    3 type  1   force =     0.00000099   -0.00000196    0.00087432
     atom    4 type  1   force =     0.00000258   -0.00000385    0.00082127
     atom    5 type  2   force =    -0.00000157    0.00000189   -0.00035177
     atom    6 type  2   force =     0.00000085   -0.00000067    0.00054428

     Total force =     0.028398     Total SCF correction =     0.001386


     Computing stress (Cartesian axis) and pressure


     negative rho (up, down):  6.322E-04 0.000E+00
          total   stress  (Ry/bohr**3)                   (kbar)     P=  -25.70
  -0.00030998   0.00008036   0.00000097        -45.60     11.82      0.14
   0.00008036  -0.00003340  -0.00000392         11.82     -4.91     -0.58
   0.00000097  -0.00000392  -0.00018070          0.14     -0.58    -26.58

     kinetic stress (kbar)   9109.45     12.35     -2.39
                               12.35   9150.79      3.79
                               -2.39      3.79   8295.79

     local   stress (kbar)-284918.26    -76.94    -49.09
                              -76.94-285166.30     81.75
                              -49.09     81.75 274599.70

     nonloc. stress (kbar)   3132.59      0.31      0.68
                                0.31   3133.77     -1.18
                                0.68     -1.18   2870.90

     hartree stress (kbar) 140472.41     26.37     12.15
                               26.37 140555.87    -19.99
                               12.15    -19.99-135971.31

     exc-cor stress (kbar)  -1126.26      0.07      0.06
                                0.07  -1126.02     -0.10
                                0.06     -0.10  -1122.78

     corecor stress (kbar)   -935.89     -0.23     -0.11
                               -0.23   -936.70      0.20
                               -0.11      0.20   -928.73

     ewald   stress (kbar) 134220.36     49.89     38.85
                               49.89 134383.67    -65.05
                               38.85    -65.05-147770.14

     hubbard stress (kbar)      0.00      0.00      0.00
                                0.00      0.00      0.00
                                0.00      0.00      0.00

     london  stress (kbar)      0.00      0.00      0.00
                                0.00      0.00      0.00
                                0.00      0.00      0.00

     DFT-D3  stress (kbar)      0.00      0.00      0.00
                                0.00      0.00      0.00
                                0.00      0.00      0.00

     XDM     stress (kbar)      0.00      0.00      0.00
                                0.00      0.00      0.00
                                0.00      0.00      0.00

     dft-nl  stress (kbar)      0.00      0.00      0.00
                                0.00      0.00      0.00
                                0.00      0.00      0.00

     TS-vdW  stress (kbar)      0.00      0.00      0.00
                                0.00      0.00      0.00
                                0.00      0.00      0.00

     3D-RISM stress (kbar)      0.00      0.00      0.00
                                0.00      0.00      0.00
                                0.00      0.00      0.00



     Writing output data file pwscf.save\

     init_run     :     16.22s CPU      7.92s WALL (       1 calls)
     electrons    :    103.39s CPU     66.09s WALL (       1 calls)
     forces       :      8.22s CPU      1.49s WALL (       1 calls)
     stress       :     21.31s CPU      4.91s WALL (       1 calls)

     Called by init_run:
     wfcinit      :      4.94s CPU      3.17s WALL (       1 calls)
     wfcinit:atom :      0.09s CPU      0.07s WALL (      74 calls)
     wfcinit:wfcr :      3.70s CPU      2.38s WALL (      74 calls)
     potinit      :      4.66s CPU      0.59s WALL (       1 calls)
     hinit0       :      6.47s CPU      4.02s WALL (       1 calls)

     Called by electrons:
     c_bands      :     81.17s CPU     53.61s WALL (       8 calls)
     sum_band     :     17.28s CPU     10.17s WALL (       8 calls)
     v_of_rho     :      1.75s CPU      0.54s WALL (       9 calls)
     v_h          :      0.22s CPU      0.03s WALL (       9 calls)
     v_xc         :      1.94s CPU      0.62s WALL (      11 calls)
     newd         :      1.08s CPU      0.67s WALL (       9 calls)
     PAW_pot      :      2.53s CPU      1.23s WALL (       9 calls)
     mix_rho      :      0.25s CPU      0.08s WALL (       8 calls)

     Called by c_bands:
     init_us_2    :      0.94s CPU      0.83s WALL (    1406 calls)
     cegterg      :     78.38s CPU     52.04s WALL (     592 calls)

     Called by sum_band:
     sum_band:bec :      0.11s CPU      0.31s WALL (     592 calls)
     addusdens    :      1.39s CPU      0.89s WALL (       8 calls)

     Called by *egterg:
     h_psi        :     71.59s CPU     42.36s WALL (    2681 calls)
     s_psi        :      2.36s CPU      2.00s WALL (    2681 calls)
     g_psi        :      0.42s CPU      0.30s WALL (    2015 calls)
     cdiaghg      :      1.38s CPU      1.63s WALL (    2607 calls)
     cegterg:over :      2.31s CPU      2.60s WALL (    2015 calls)
     cegterg:upda :      1.70s CPU      2.10s WALL (    2015 calls)
     cegterg:last :      0.47s CPU      0.65s WALL (     598 calls)

     Called by h_psi:
     h_psi:pot    :     71.02s CPU     41.49s WALL (    2681 calls)
     h_psi:calbec :      4.69s CPU      2.11s WALL (    2681 calls)
     vloc_psi     :     64.41s CPU     37.60s WALL (    2681 calls)
     add_vuspsi   :      1.89s CPU      1.77s WALL (    2681 calls)

     General routines
     calbec       :      6.00s CPU      3.11s WALL (    3643 calls)
     fft          :      0.23s CPU      0.10s WALL (     140 calls)
     ffts         :      0.05s CPU      0.01s WALL (      17 calls)
     fftw         :     40.06s CPU     22.30s WALL (   78126 calls)
     interpolate  :      0.00s CPU      0.02s WALL (       9 calls)

     Parallel routines

     PAW routines
     PAW_pot      :      2.53s CPU      1.23s WALL (       9 calls)

     PWSCF        :   2m31.20s CPU   1m23.02s WALL


   This run was terminated on:  14:26:27   1Dec2024            

=------------------------------------------------------------------------------=
   JOB DONE.
=------------------------------------------------------------------------------=
