
     Program PWSCF v.6.4.1 starts on  1Dec2024 at 14:13: 2 

     This program is part of the open-source Quantum ESPRESSO suite
     for quantum simulation of materials; please cite
         "P. Giannozzi et al., J. Phys.:Condens. Matter 21 395502 (2009);
         "P. Giannozzi et al., J. Phys.:Condens. Matter 29 465901 (2017);
          URL http://www.quantum-espresso.org", 
     in publications or presentations arising from this work. More details at
     http://www.quantum-espresso.org/quote

     Parallel version (MPI & OpenMP), running on      12 processor cores
     Number of MPI processes:                 1
     Threads/MPI process:                    12

     MPI processes distributed on     1 nodes
     Waiting for input...
     Reading input from standard input
Warning: card &IONS ignored
Warning: card ION_DYNAMICS = 'BFGS' ignored
Warning: card / ignored
Warning: card &CELL ignored
Warning: card CELL_DOFREE = 'ALL' ignored
Warning: card CELL_DYNAMICS = 'BFGS' ignored
Warning: card PRESS = 0.0 ignored
Warning: card PRESS_CONV_THR = 0.5 ignored
Warning: card / ignored

     Current dimensions of program PWSCF are:
     Max number of different atomic species (ntypx) = 10
     Max number of k-points (npk) =  40000
     Max angular momentum in pseudopotentials (lmaxx) =  3
               file C.pbesol-n-kjpaw_psl.1.0.0.UPF: wavefunction(s)  2S 2P renormalized
               file F.pbesol-n-kjpaw_psl.1.0.0.UPF: wavefunction(s)  2S 2P renormalized

     Subspace diagonalization in iterative solution of the eigenvalue problem:
     a serial algorithm will be used


     G-vector sticks info
     --------------------
     sticks:   dense  smooth     PW     G-vecs:    dense   smooth      PW
     Sum         569     285     95                86033    30351    6149



     bravais-lattice index     =            0
     lattice parameter (alat)  =       4.7357  a.u.
     unit-cell volume          =     744.8859 (a.u.)^3
     number of atoms/cell      =            6
     number of atomic types    =            2
     number of electrons       =        30.00
     number of Kohn-Sham states=           19
     kinetic-energy cutoff     =      45.0000  Ry
     charge density cutoff     =     360.0000  Ry
     convergence threshold     =      1.0E-06
     mixing beta               =       0.7000
     number of iterations used =            8  plain     mixing
     Exchange-correlation      = SLA PW PSX PSC ( 1  4 10  8 0 0)

     celldm(1)=   4.735675  celldm(2)=   0.000000  celldm(3)=   0.000000
     celldm(4)=   0.000000  celldm(5)=   0.000000  celldm(6)=   0.000000

     crystal axes: (cart. coord. in units of alat)
               a(1) = (   1.000000  -0.000000   0.000000 )  
               a(2) = (   0.507981   0.879849   0.000000 )  
               a(3) = (   0.000651   0.000382   7.971427 )  

     reciprocal axes: (cart. coord. in units 2 pi/alat)
               b(1) = (  1.000000 -0.577350 -0.000054 )  
               b(2) = (  0.000000  1.136559 -0.000054 )  
               b(3) = ( -0.000000  0.000000  0.125448 )  


     PseudoPot. # 1 for C  read from file:
     .\C.pbesol-n-kjpaw_psl.1.0.0.UPF
     MD5 check sum: f9b2fe17d1f478429498b05d17159f9e
     Pseudo is Projector augmented-wave + core cor, Zval =  4.0
     Generated using "atomic" code by A. Dal Corso v.6.3
     Shape of augmentation charge: PSQ
     Using radial grid of 1073 points,  4 beta functions with: 
                l(1) =   0
                l(2) =   0
                l(3) =   1
                l(4) =   1
     Q(r) pseudized with 0 coefficients 


     PseudoPot. # 2 for F  read from file:
     .\F.pbesol-n-kjpaw_psl.1.0.0.UPF
     MD5 check sum: d939582bcd23f1ece12cfc4fab8d9d36
     Pseudo is Projector augmented-wave + core cor, Zval =  7.0
     Generated using "atomic" code by A. Dal Corso v.6.3
     Shape of augmentation charge: PSQ
     Using radial grid of 1105 points,  4 beta functions with: 
                l(1) =   0
                l(2) =   0
                l(3) =   1
                l(4) =   1
     Q(r) pseudized with 0 coefficients 


     atomic species   valence    mass     pseudopotential
        C              4.00    12.01070     C ( 1.00)
        F              7.00    18.99840     F ( 1.00)

     No symmetry found


                                    s                        frac. trans.

      isym =  1     identity                                     

 cryst.   s( 1) = (     1          0          0      )
                  (     0          1          0      )
                  (     0          0          1      )

 cart.    s( 1) = (  1.0000000  0.0000000  0.0000000 )
                  (  0.0000000  1.0000000  0.0000000 )
                  (  0.0000000  0.0000000  1.0000000 )


   Cartesian axes

     site n.     atom                  positions (alat units)
         1           C   tau(   1) = (   0.0003572   0.0002103   4.0130428  )
         2           C   tau(   2) = (   0.5030183   0.2934934   4.2137565  )
         3           C   tau(   3) = (   1.0056756   0.5867728   5.0345444  )
         4           C   tau(   4) = (   0.5030150   0.2934899   4.8338264  )
         5           F   tau(   5) = (   0.0003500   0.0002052   3.4630988  )
         6           F   tau(   6) = (   1.0056789   0.5867756   5.5844917  )

   Crystallographic axes

     site n.     atom                  positions (cryst. coord.)
         1           C   tau(   1) = (  0.0000192  0.0000206  0.5034284  )
         2           C   tau(   2) = (  0.3333424  0.3333434  0.5286075  )
         3           C   tau(   3) = (  0.6666304  0.6666281  0.6315738  )
         4           C   tau(   4) = (  0.3333076  0.3333056  0.6063941  )
         5           F   tau(   5) = (  0.0000446  0.0000447  0.4344390  )
         6           F   tau(   6) = (  0.6666024  0.6666014  0.7005636  )

     number of k points=    74  Marzari-Vanderbilt smearing, width (Ry)=  0.0200
                       cart. coord. in units 2pi/alat
        k(    1) = (   0.0000000   0.0000000   0.0000000), wk =   0.0138889
        k(    2) = (   0.0000000   0.0947132  -0.0000045), wk =   0.0277778
        k(    3) = (   0.0000000   0.1894265  -0.0000091), wk =   0.0277778
        k(    4) = (   0.0000001   0.2841397  -0.0000136), wk =   0.0277778
        k(    5) = (   0.0000001   0.3788530  -0.0000181), wk =   0.0277778
        k(    6) = (   0.0000001   0.4735662  -0.0000227), wk =   0.0277778
        k(    7) = (  -0.0000001  -0.5682795   0.0000272), wk =   0.0138889
        k(    8) = (   0.0833333  -0.0481125  -0.0000045), wk =   0.0277778
        k(    9) = (   0.0833333   0.0466007  -0.0000090), wk =   0.0277778
        k(   10) = (   0.0833334   0.1413140  -0.0000136), wk =   0.0277778
        k(   11) = (   0.0833334   0.2360272  -0.0000181), wk =   0.0277778
        k(   12) = (   0.0833334   0.3307405  -0.0000226), wk =   0.0277778
        k(   13) = (   0.0833334   0.4254537  -0.0000272), wk =   0.0277778
        k(   14) = (   0.0833332  -0.6163920   0.0000227), wk =   0.0277778
        k(   15) = (   0.0833332  -0.5216788   0.0000182), wk =   0.0277778
        k(   16) = (   0.0833332  -0.4269655   0.0000136), wk =   0.0277778
        k(   17) = (   0.0833333  -0.3322523   0.0000091), wk =   0.0277778
        k(   18) = (   0.0833333  -0.2375390   0.0000046), wk =   0.0277778
        k(   19) = (   0.0833333  -0.1428258   0.0000000), wk =   0.0277778
        k(   20) = (   0.1666666  -0.0962250  -0.0000090), wk =   0.0277778
        k(   21) = (   0.1666667  -0.0015118  -0.0000135), wk =   0.0277778
        k(   22) = (   0.1666667   0.0932015  -0.0000181), wk =   0.0277778
        k(   23) = (   0.1666667   0.1879147  -0.0000226), wk =   0.0277778
        k(   24) = (   0.1666667   0.2826280  -0.0000271), wk =   0.0277778
        k(   25) = (   0.1666667   0.3773412  -0.0000317), wk =   0.0277778
        k(   26) = (   0.1666665  -0.6645045   0.0000182), wk =   0.0277778
        k(   27) = (   0.1666665  -0.5697913   0.0000137), wk =   0.0277778
        k(   28) = (   0.1666666  -0.4750780   0.0000091), wk =   0.0277778
        k(   29) = (   0.1666666  -0.3803648   0.0000046), wk =   0.0277778
        k(   30) = (   0.1666666  -0.2856515   0.0000001), wk =   0.0277778
        k(   31) = (   0.1666666  -0.1909383  -0.0000045), wk =   0.0277778
        k(   32) = (   0.2500000  -0.1443375  -0.0000135), wk =   0.0277778
        k(   33) = (   0.2500000  -0.0496243  -0.0000180), wk =   0.0277778
        k(   34) = (   0.2500000   0.0450890  -0.0000226), wk =   0.0277778
        k(   35) = (   0.2500000   0.1398022  -0.0000271), wk =   0.0277778
        k(   36) = (   0.2500000   0.2345155  -0.0000316), wk =   0.0277778
        k(   37) = (   0.2500001   0.3292287  -0.0000362), wk =   0.0277778
        k(   38) = (   0.2499999  -0.7126170   0.0000137), wk =   0.0277778
        k(   39) = (   0.2499999  -0.6179038   0.0000092), wk =   0.0277778
        k(   40) = (   0.2499999  -0.5231905   0.0000046), wk =   0.0277778
        k(   41) = (   0.2499999  -0.4284773   0.0000001), wk =   0.0277778
        k(   42) = (   0.2499999  -0.3337640  -0.0000044), wk =   0.0277778
        k(   43) = (   0.2499999  -0.2390508  -0.0000090), wk =   0.0277778
        k(   44) = (   0.3333333  -0.1924500  -0.0000180), wk =   0.0277778
        k(   45) = (   0.3333333  -0.0977368  -0.0000225), wk =   0.0277778
        k(   46) = (   0.3333333  -0.0030235  -0.0000271), wk =   0.0277778
        k(   47) = (   0.3333334   0.0916897  -0.0000316), wk =   0.0277778
        k(   48) = (   0.3333334   0.1864030  -0.0000361), wk =   0.0277778
        k(   49) = (   0.3333334   0.2811162  -0.0000407), wk =   0.0277778
        k(   50) = (   0.3333332  -0.7607295   0.0000092), wk =   0.0277778
        k(   51) = (   0.3333332  -0.6660163   0.0000047), wk =   0.0277778
        k(   52) = (   0.3333332  -0.5713030   0.0000002), wk =   0.0277778
        k(   53) = (   0.3333332  -0.4765898  -0.0000044), wk =   0.0277778
        k(   54) = (   0.3333333  -0.3818765  -0.0000089), wk =   0.0277778
        k(   55) = (   0.3333333  -0.2871633  -0.0000135), wk =   0.0277778
        k(   56) = (   0.4166666  -0.2405625  -0.0000225), wk =   0.0277778
        k(   57) = (   0.4166666  -0.1458493  -0.0000270), wk =   0.0277778
        k(   58) = (   0.4166667  -0.0511360  -0.0000316), wk =   0.0277778
        k(   59) = (   0.4166667   0.0435772  -0.0000361), wk =   0.0277778
        k(   60) = (   0.4166667   0.1382905  -0.0000406), wk =   0.0277778
        k(   61) = (   0.4166667   0.2330037  -0.0000452), wk =   0.0277778
        k(   62) = (   0.4166665  -0.8088420   0.0000047), wk =   0.0277778
        k(   63) = (   0.4166665  -0.7141288   0.0000002), wk =   0.0277778
        k(   64) = (   0.4166665  -0.6194155  -0.0000043), wk =   0.0277778
        k(   65) = (   0.4166666  -0.5247023  -0.0000089), wk =   0.0277778
        k(   66) = (   0.4166666  -0.4299890  -0.0000134), wk =   0.0277778
        k(   67) = (   0.4166666  -0.3352758  -0.0000180), wk =   0.0277778
        k(   68) = (  -0.4999999   0.2886750   0.0000270), wk =   0.0138889
        k(   69) = (  -0.4999999   0.3833883   0.0000225), wk =   0.0277778
        k(   70) = (  -0.4999999   0.4781015   0.0000179), wk =   0.0277778
        k(   71) = (  -0.4999999   0.5728148   0.0000134), wk =   0.0277778
        k(   72) = (  -0.4999999   0.6675280   0.0000088), wk =   0.0277778
        k(   73) = (  -0.4999998   0.7622413   0.0000043), wk =   0.0277778
        k(   74) = (  -0.5000001  -0.2796045   0.0000542), wk =   0.0138889

                       cryst. coord.
        k(    1) = (   0.0000000   0.0000000   0.0000000), wk =   0.0138889
        k(    2) = (  -0.0000000   0.0833333   0.0000000), wk =   0.0277778
        k(    3) = (  -0.0000000   0.1666667   0.0000000), wk =   0.0277778
        k(    4) = (   0.0000000   0.2500000   0.0000000), wk =   0.0277778
        k(    5) = (  -0.0000000   0.3333333   0.0000000), wk =   0.0277778
        k(    6) = (   0.0000000   0.4166667   0.0000000), wk =   0.0277778
        k(    7) = (   0.0000000  -0.5000000   0.0000000), wk =   0.0138889
        k(    8) = (   0.0833333   0.0000000   0.0000000), wk =   0.0277778
        k(    9) = (   0.0833333   0.0833333   0.0000000), wk =   0.0277778
        k(   10) = (   0.0833333   0.1666667   0.0000000), wk =   0.0277778
        k(   11) = (   0.0833333   0.2500000   0.0000000), wk =   0.0277778
        k(   12) = (   0.0833333   0.3333333   0.0000000), wk =   0.0277778
        k(   13) = (   0.0833333   0.4166667   0.0000000), wk =   0.0277778
        k(   14) = (   0.0833333  -0.5000000   0.0000000), wk =   0.0277778
        k(   15) = (   0.0833333  -0.4166667   0.0000000), wk =   0.0277778
        k(   16) = (   0.0833333  -0.3333333  -0.0000000), wk =   0.0277778
        k(   17) = (   0.0833333  -0.2500000   0.0000000), wk =   0.0277778
        k(   18) = (   0.0833333  -0.1666667   0.0000000), wk =   0.0277778
        k(   19) = (   0.0833333  -0.0833333  -0.0000000), wk =   0.0277778
        k(   20) = (   0.1666667   0.0000000   0.0000000), wk =   0.0277778
        k(   21) = (   0.1666667   0.0833333   0.0000000), wk =   0.0277778
        k(   22) = (   0.1666667   0.1666667   0.0000000), wk =   0.0277778
        k(   23) = (   0.1666667   0.2500000   0.0000000), wk =   0.0277778
        k(   24) = (   0.1666667   0.3333333   0.0000000), wk =   0.0277778
        k(   25) = (   0.1666667   0.4166667   0.0000000), wk =   0.0277778
        k(   26) = (   0.1666667  -0.5000000   0.0000000), wk =   0.0277778
        k(   27) = (   0.1666667  -0.4166667   0.0000000), wk =   0.0277778
        k(   28) = (   0.1666667  -0.3333333  -0.0000000), wk =   0.0277778
        k(   29) = (   0.1666667  -0.2500000   0.0000000), wk =   0.0277778
        k(   30) = (   0.1666667  -0.1666667  -0.0000000), wk =   0.0277778
        k(   31) = (   0.1666667  -0.0833333   0.0000000), wk =   0.0277778
        k(   32) = (   0.2500000   0.0000000  -0.0000000), wk =   0.0277778
        k(   33) = (   0.2500000   0.0833333   0.0000000), wk =   0.0277778
        k(   34) = (   0.2500000   0.1666667   0.0000000), wk =   0.0277778
        k(   35) = (   0.2500000   0.2500000  -0.0000000), wk =   0.0277778
        k(   36) = (   0.2500000   0.3333333   0.0000000), wk =   0.0277778
        k(   37) = (   0.2500000   0.4166667   0.0000000), wk =   0.0277778
        k(   38) = (   0.2500000  -0.5000000   0.0000000), wk =   0.0277778
        k(   39) = (   0.2500000  -0.4166667   0.0000000), wk =   0.0277778
        k(   40) = (   0.2500000  -0.3333333  -0.0000000), wk =   0.0277778
        k(   41) = (   0.2500000  -0.2500000  -0.0000000), wk =   0.0277778
        k(   42) = (   0.2500000  -0.1666667  -0.0000000), wk =   0.0277778
        k(   43) = (   0.2500000  -0.0833333   0.0000000), wk =   0.0277778
        k(   44) = (   0.3333333   0.0000000   0.0000000), wk =   0.0277778
        k(   45) = (   0.3333333   0.0833333  -0.0000000), wk =   0.0277778
        k(   46) = (   0.3333333   0.1666667   0.0000000), wk =   0.0277778
        k(   47) = (   0.3333333   0.2500000   0.0000000), wk =   0.0277778
        k(   48) = (   0.3333333   0.3333333   0.0000000), wk =   0.0277778
        k(   49) = (   0.3333333   0.4166667   0.0000000), wk =   0.0277778
        k(   50) = (   0.3333333  -0.5000000   0.0000000), wk =   0.0277778
        k(   51) = (   0.3333333  -0.4166667   0.0000000), wk =   0.0277778
        k(   52) = (   0.3333333  -0.3333333  -0.0000000), wk =   0.0277778
        k(   53) = (   0.3333333  -0.2500000   0.0000000), wk =   0.0277778
        k(   54) = (   0.3333333  -0.1666667   0.0000000), wk =   0.0277778
        k(   55) = (   0.3333333  -0.0833333   0.0000000), wk =   0.0277778
        k(   56) = (   0.4166667   0.0000000  -0.0000000), wk =   0.0277778
        k(   57) = (   0.4166667   0.0833333   0.0000000), wk =   0.0277778
        k(   58) = (   0.4166667   0.1666667   0.0000000), wk =   0.0277778
        k(   59) = (   0.4166667   0.2500000   0.0000000), wk =   0.0277778
        k(   60) = (   0.4166667   0.3333333   0.0000000), wk =   0.0277778
        k(   61) = (   0.4166667   0.4166667   0.0000000), wk =   0.0277778
        k(   62) = (   0.4166667  -0.5000000   0.0000000), wk =   0.0277778
        k(   63) = (   0.4166667  -0.4166667  -0.0000000), wk =   0.0277778
        k(   64) = (   0.4166667  -0.3333333  -0.0000000), wk =   0.0277778
        k(   65) = (   0.4166667  -0.2500000   0.0000000), wk =   0.0277778
        k(   66) = (   0.4166667  -0.1666667  -0.0000000), wk =   0.0277778
        k(   67) = (   0.4166667  -0.0833333  -0.0000000), wk =   0.0277778
        k(   68) = (  -0.5000000   0.0000000   0.0000000), wk =   0.0138889
        k(   69) = (  -0.5000000   0.0833333   0.0000000), wk =   0.0277778
        k(   70) = (  -0.5000000   0.1666667   0.0000000), wk =   0.0277778
        k(   71) = (  -0.5000000   0.2500000   0.0000000), wk =   0.0277778
        k(   72) = (  -0.5000000   0.3333333   0.0000000), wk =   0.0277778
        k(   73) = (  -0.5000000   0.4166667  -0.0000000), wk =   0.0277778
        k(   74) = (  -0.5000000  -0.5000000   0.0000000), wk =   0.0138889

     Dense  grid:    86033 G-vectors     FFT dimensions: (  30,  30, 240)

     Smooth grid:    30351 G-vectors     FFT dimensions: (  24,  24, 162)

     Dynamical RAM for                 wfc:       1.10 MB

     Dynamical RAM for     wfc (w. buffer):      82.56 MB

     Dynamical RAM for           str. fact:       2.63 MB

     Dynamical RAM for           local pot:       0.00 MB

     Dynamical RAM for          nlocal pot:       2.78 MB

     Dynamical RAM for                qrad:       0.66 MB

     Dynamical RAM for          rho,v,vnew:       8.88 MB

     Dynamical RAM for               rhoin:       2.96 MB

     Dynamical RAM for            rho*nmix:      21.00 MB

     Dynamical RAM for           G-vectors:       5.15 MB

     Dynamical RAM for          h,s,v(r/c):       0.26 MB

     Dynamical RAM for          <psi|beta>:       0.01 MB

     Dynamical RAM for                 psi:       4.40 MB

     Dynamical RAM for                hpsi:       4.40 MB

     Dynamical RAM for                spsi:       4.40 MB

     Dynamical RAM for      wfcinit/wfcrot:       2.79 MB

     Dynamical RAM for           addusdens:      61.70 MB

     Dynamical RAM for          addusforce:      78.11 MB

     Dynamical RAM for         addusstress:      65.64 MB

     Estimated static dynamical RAM per process >     138.80 MB

     Estimated max dynamical RAM per process >     216.92 MB

     Check: negative core charge=   -0.000006

     Initial potential from superposition of free atoms

     starting charge   29.99983, renormalised to   30.00000

     negative rho (up, down):  5.233E-04 0.000E+00
     Starting wfcs are   24 randomized atomic wfcs
     Checking if some PAW data can be deallocated... 

     total cpu time spent up to now is        9.5 secs

     Self-consistent Calculation

     iteration #  1     ecut=    45.00 Ry     beta= 0.70
     Davidson diagonalization with overlap
     ethr =  1.00E-02,  avg # of iterations =  2.8

     negative rho (up, down):  6.179E-04 0.000E+00

     total cpu time spent up to now is       17.9 secs

     total energy              =    -189.88053392 Ry
     Harris-Foulkes estimate   =    -190.06413805 Ry
     estimated scf accuracy    <       0.33692027 Ry

     iteration #  2     ecut=    45.00 Ry     beta= 0.70
     Davidson diagonalization with overlap
     ethr =  1.12E-03,  avg # of iterations =  2.4

     negative rho (up, down):  6.441E-04 0.000E+00

     total cpu time spent up to now is       25.4 secs

     total energy              =    -189.91172145 Ry
     Harris-Foulkes estimate   =    -189.96270634 Ry
     estimated scf accuracy    <       0.08101222 Ry

     iteration #  3     ecut=    45.00 Ry     beta= 0.70
     Davidson diagonalization with overlap
     ethr =  2.70E-04,  avg # of iterations =  5.3

     negative rho (up, down):  6.581E-04 0.000E+00

     total cpu time spent up to now is       34.1 secs

     total energy              =    -189.92989208 Ry
     Harris-Foulkes estimate   =    -189.94844299 Ry
     estimated scf accuracy    <       0.03583093 Ry

     iteration #  4     ecut=    45.00 Ry     beta= 0.70
     Davidson diagonalization with overlap
     ethr =  1.19E-04,  avg # of iterations =  4.6

     negative rho (up, down):  6.591E-04 0.000E+00

     total cpu time spent up to now is       41.8 secs

     total energy              =    -189.93760111 Ry
     Harris-Foulkes estimate   =    -189.94187739 Ry
     estimated scf accuracy    <       0.00992372 Ry

     iteration #  5     ecut=    45.00 Ry     beta= 0.70
     Davidson diagonalization with overlap
     ethr =  3.31E-05,  avg # of iterations =  4.0

     negative rho (up, down):  6.627E-04 0.000E+00

     total cpu time spent up to now is       49.0 secs

     total energy              =    -189.93951645 Ry
     Harris-Foulkes estimate   =    -189.93953653 Ry
     estimated scf accuracy    <       0.00006246 Ry

     iteration #  6     ecut=    45.00 Ry     beta= 0.70
     Davidson diagonalization with overlap
     ethr =  2.08E-07,  avg # of iterations =  4.3

     negative rho (up, down):  6.641E-04 0.000E+00

     total cpu time spent up to now is       58.3 secs

     total energy              =    -189.93956518 Ry
     Harris-Foulkes estimate   =    -189.93957432 Ry
     estimated scf accuracy    <       0.00002159 Ry

     iteration #  7     ecut=    45.00 Ry     beta= 0.70
     Davidson diagonalization with overlap
     ethr =  7.20E-08,  avg # of iterations =  2.0

     negative rho (up, down):  6.647E-04 0.000E+00

     total cpu time spent up to now is       64.4 secs

     total energy              =    -189.93956635 Ry
     Harris-Foulkes estimate   =    -189.93956738 Ry
     estimated scf accuracy    <       0.00000220 Ry

     iteration #  8     ecut=    45.00 Ry     beta= 0.70
     Davidson diagonalization with overlap
     ethr =  7.34E-09,  avg # of iterations =  3.0

     negative rho (up, down):  6.648E-04 0.000E+00

     total cpu time spent up to now is       72.1 secs

     End of self-consistent calculation

          k = 0.0000 0.0000 0.0000 (  3775 PWs)   bands (ev):

   -27.2397 -27.1837 -21.6709 -18.2560 -12.1562  -9.3325  -6.1433  -5.5802
    -5.4848  -5.3054  -5.2155  -3.0702  -2.9750  -1.8497  -1.7707   2.0247
     4.7960   4.8848   5.1787

     occupation numbers 
     1.0000   1.0000   1.0000   1.0000   1.0000   1.0000   1.0000   1.0000
     1.0000   1.0000   1.0000   1.0000   1.0000   1.0000   1.0000   0.0000
     0.0000   0.0000   0.0000

          k = 0.0000 0.0947-0.0000 (  3743 PWs)   bands (ev):

   -27.1720 -27.1194 -21.5234 -18.1304 -12.0571  -9.3007  -6.4885  -5.9311
    -5.6856  -5.6184  -5.3265  -3.5238  -3.1534  -2.3924  -1.9561   2.3859
     4.6511   5.4141   5.5510

     occupation numbers 
     1.0000   1.0000   1.0000   1.0000   1.0000   1.0000   1.0000   1.0000
     1.0000   1.0000   1.0000   1.0000   1.0000   1.0000   1.0000   0.0000
     0.0000   0.0000   0.0000

          k = 0.0000 0.1894-0.0000 (  3756 PWs)   bands (ev):

   -26.9827 -26.9396 -21.0817 -17.7555 -11.7776  -9.2457  -7.7464  -7.0951
    -6.1901  -6.0875  -5.6293  -4.2525  -3.5356  -3.4996  -2.3839   2.9716
     4.4337   6.1688   6.3058

     occupation numbers 
     1.0000   1.0000   1.0000   1.0000   1.0000   1.0000   1.0000   1.0000
     1.0000   1.0000   1.0000   1.0000   1.0000   1.0000   1.0000   0.0000
     0.0000   0.0000   0.0000

          k = 0.0000 0.2841-0.0000 (  3774 PWs)   bands (ev):

   -26.7133 -26.6829 -20.3487 -17.1379 -11.4145  -9.8590  -9.1725  -8.3935
    -6.8262  -6.7138  -6.0491  -4.9556  -4.5143  -3.8207  -2.8354   3.2307
     4.3884   6.4031   7.1691

     occupation numbers 
     1.0000   1.0000   1.0000   1.0000   1.0000   1.0000   1.0000   1.0000
     1.0000   1.0000   1.0000   1.0000   1.0000   1.0000   1.0000   0.0000
     0.0000   0.0000   0.0000

          k = 0.0000 0.3789-0.0000 (  3791 PWs)   bands (ev):

   -26.4300 -26.4121 -19.3344 -16.2947 -12.2043 -10.8389 -10.2373  -8.8072
    -7.3972  -7.3129  -6.4619  -5.8829  -4.9018  -4.0628  -3.1856   3.1877
     4.5260   6.0675   7.6722

     occupation numbers 
     1.0000   1.0000   1.0000   1.0000   1.0000   1.0000   1.0000   1.0000
     1.0000   1.0000   1.0000   1.0000   1.0000   1.0000   1.0000   0.0000
     0.0000   0.0000   0.0000

          k = 0.0000 0.4736-0.0000 (  3799 PWs)   bands (ev):

   -26.2125 -26.2040 -18.0866 -15.3362 -14.0190 -12.1543 -10.0625  -8.9991
    -7.7788  -7.6484  -6.7551  -6.5415  -5.1303  -4.2146  -3.3998   3.2370
     4.3330   5.6164   7.8546

     occupation numbers 
     1.0000   1.0000   1.0000   1.0000   1.0000   1.0000   1.0000   1.0000
     1.0000   1.0000   1.0000   1.0000   1.0000   1.0000   1.0000   0.0000
     0.0000   0.0000   0.0000

          k =-0.0000-0.5683 0.0000 (  3806 PWs)   bands (ev):

   -26.1300 -26.1261 -17.1142 -15.5624 -14.0950 -13.2528  -9.8079  -9.1712
    -7.9119  -7.7292  -6.8600  -6.7759  -5.2197  -4.2666  -3.4716   3.3906
     3.9883   5.5488   8.1562

     occupation numbers 
     1.0000   1.0000   1.0000   1.0000   1.0000   1.0000   1.0000   1.0000
     1.0000   1.0000   1.0000   1.0000   1.0000   1.0000   1.0000   0.0000
     0.0000   0.0000   0.0000

          k = 0.0833-0.0481-0.0000 (  3757 PWs)   bands (ev):

   -27.1685 -27.1160 -21.5182 -18.1256 -12.0524  -9.2982  -6.4538  -5.8606
    -5.7920  -5.5194  -5.4178  -3.4348  -3.2510  -2.3143  -2.0436   2.3638
     4.6390   5.2998   5.5153

     occupation numbers 
     1.0000   1.0000   1.0000   1.0000   1.0000   1.0000   1.0000   1.0000
     1.0000   1.0000   1.0000   1.0000   1.0000   1.0000   1.0000   0.0000
     0.0000   0.0000   0.0000

          k = 0.0833 0.0466-0.0000 (  3757 PWs)   bands (ev):

   -27.1702 -27.1176 -21.5207 -18.1279 -12.0547  -9.2994  -6.4680  -5.8966
    -5.7457  -5.5622  -5.3735  -3.4772  -3.2053  -2.3492  -2.0041   2.3733
     4.6454   5.3386   5.5281

     occupation numbers 
     1.0000   1.0000   1.0000   1.0000   1.0000   1.0000   1.0000   1.0000
     1.0000   1.0000   1.0000   1.0000   1.0000   1.0000   1.0000   0.0000
     0.0000   0.0000   0.0000

          k = 0.0833 0.1413-0.0000 (  3736 PWs)   bands (ev):

   -27.0431 -26.9970 -21.2286 -17.8799 -11.8669  -9.2529  -7.1805  -6.6100
    -6.3237  -5.9309  -5.5553  -3.9149  -3.7049  -2.9343  -2.4703   2.9045
     4.6883   5.8049   5.9830

     occupation numbers 
     1.0000   1.0000   1.0000   1.0000   1.0000   1.0000   1.0000   1.0000
     1.0000   1.0000   1.0000   1.0000   1.0000   1.0000   1.0000   0.0000
     0.0000   0.0000   0.0000

          k = 0.0833 0.2360-0.0000 (  3770 PWs)   bands (ev):

   -26.8145 -26.7793 -20.6435 -17.3853 -11.5325  -9.2965  -8.6435  -7.8164
    -7.0495  -6.5703  -5.9012  -4.6194  -4.2318  -3.6778  -2.9953   3.5258
     4.6319   6.4913   6.8548

     occupation numbers 
     1.0000   1.0000   1.0000   1.0000   1.0000   1.0000   1.0000   1.0000
     1.0000   1.0000   1.0000   1.0000   1.0000   1.0000   1.0000   0.0000
     0.0000   0.0000   0.0000

          k = 0.0833 0.3307-0.0000 (  3792 PWs)   bands (ev):

   -26.5373 -26.5146 -19.7706 -16.6541 -11.4144 -10.5257  -9.6756  -8.6738
    -7.7241  -7.1820  -6.4438  -5.4594  -4.7264  -4.0883  -3.3716   3.7818
     4.6857   6.7744   7.5970

     occupation numbers 
     1.0000   1.0000   1.0000   1.0000   1.0000   1.0000   1.0000   1.0000
     1.0000   1.0000   1.0000   1.0000   1.0000   1.0000   1.0000   0.0000
     0.0000   0.0000   0.0000

          k = 0.0833 0.4255-0.0000 (  3800 PWs)   bands (ev):

   -26.2845 -26.2724 -18.6312 -15.7209 -13.0541 -11.3550 -10.1842  -8.9103
    -8.1847  -7.5794  -6.9751  -6.1865  -5.0868  -4.2722  -3.6268   3.7901
     4.7775   6.3122   7.9861

     occupation numbers 
     1.0000   1.0000   1.0000   1.0000   1.0000   1.0000   1.0000   1.0000
     1.0000   1.0000   1.0000   1.0000   1.0000   1.0000   1.0000   0.0000
     0.0000   0.0000   0.0000

          k = 0.0833-0.6164 0.0000 (  3799 PWs)   bands (ev):

   -26.1313 -26.1262 -17.3588 -15.1744 -14.2289 -12.7696  -9.8423  -9.1271
    -8.4265  -7.7206  -7.2797  -6.6021  -5.2820  -4.3597  -3.7561   3.9645
     4.4064   6.1100   8.1642

     occupation numbers 
     1.0000   1.0000   1.0000   1.0000   1.0000   1.0000   1.0000   1.0000
     1.0000   1.0000   1.0000   1.0000   1.0000   1.0000   1.0000   0.0000
     0.0000   0.0000   0.0000

          k = 0.0833-0.5217 0.0000 (  3804 PWs)   bands (ev):

   -26.1291 -26.1241 -17.3386 -15.1868 -14.2211 -12.7967  -9.8336  -9.1395
    -8.4077  -7.7377  -7.2568  -6.6072  -5.2832  -4.3578  -3.7497   3.9619
     4.3929   6.1015   8.1522

     occupation numbers 
     1.0000   1.0000   1.0000   1.0000   1.0000   1.0000   1.0000   1.0000
     1.0000   1.0000   1.0000   1.0000   1.0000   1.0000   1.0000   0.0000
     0.0000   0.0000   0.0000

          k = 0.0833-0.4270 0.0000 (  3809 PWs)   bands (ev):

   -26.2788 -26.2669 -18.6092 -15.7023 -13.0901 -11.3879 -10.1789  -8.9206
    -8.1428  -7.6101  -6.9251  -6.2024  -5.0915  -4.2653  -3.6095   3.7696
     4.7575   6.2864   7.9567

     occupation numbers 
     1.0000   1.0000   1.0000   1.0000   1.0000   1.0000   1.0000   1.0000
     1.0000   1.0000   1.0000   1.0000   1.0000   1.0000   1.0000   0.0000
     0.0000   0.0000   0.0000

          k = 0.0833-0.3323 0.0000 (  3794 PWs)   bands (ev):

   -26.5300 -26.5074 -19.7529 -16.6386 -11.4261 -10.5473  -9.7089  -8.6792
    -7.6857  -7.1941  -6.3887  -5.4809  -4.7416  -4.0744  -3.3467   3.7511
     4.6566   6.7524   7.5437

     occupation numbers 
     1.0000   1.0000   1.0000   1.0000   1.0000   1.0000   1.0000   1.0000
     1.0000   1.0000   1.0000   1.0000   1.0000   1.0000   1.0000   0.0000
     0.0000   0.0000   0.0000

          k = 0.0833-0.2375 0.0000 (  3773 PWs)   bands (ev):

   -26.8076 -26.7726 -20.6307 -17.3740 -11.5230  -9.3011  -8.6828  -7.8301
    -7.0295  -6.5684  -5.8535  -4.6374  -4.2450  -3.6772  -2.9659   3.4971
     4.5834   6.4720   6.8697

     occupation numbers 
     1.0000   1.0000   1.0000   1.0000   1.0000   1.0000   1.0000   1.0000
     1.0000   1.0000   1.0000   1.0000   1.0000   1.0000   1.0000   0.0000
     0.0000   0.0000   0.0000

          k = 0.0833-0.1428 0.0000 (  3749 PWs)   bands (ev):

   -27.0384 -26.9924 -21.2209 -17.8730 -11.8603  -9.2503  -7.1833  -6.5985
    -6.3332  -5.9478  -5.5288  -3.9244  -3.6957  -2.9476  -2.4635   2.8772
     4.6453   5.7439   5.9955

     occupation numbers 
     1.0000   1.0000   1.0000   1.0000   1.0000   1.0000   1.0000   1.0000
     1.0000   1.0000   1.0000   1.0000   1.0000   1.0000   1.0000   0.0000
     0.0000   0.0000   0.0000

          k = 0.1667-0.0962-0.0000 (  3770 PWs)   bands (ev):

   -26.9693 -26.9264 -21.0606 -17.7364 -11.7586  -9.2358  -7.5885  -7.0288
    -6.3603  -6.0137  -5.7608  -4.1780  -3.6223  -3.4622  -2.5106   2.8950
     4.3568   6.0489   6.1927

     occupation numbers 
     1.0000   1.0000   1.0000   1.0000   1.0000   1.0000   1.0000   1.0000
     1.0000   1.0000   1.0000   1.0000   1.0000   1.0000   1.0000   0.0000
     0.0000   0.0000   0.0000

          k = 0.1667-0.0015-0.0000 (  3749 PWs)   bands (ev):

   -27.0333 -26.9874 -21.2130 -17.8658 -11.8533  -9.2471  -7.1685  -6.5727
    -6.3568  -5.9644  -5.5164  -3.9099  -3.7092  -2.9495  -2.4733   2.8439
     4.5885   5.6964   6.0070

     occupation numbers 
     1.0000   1.0000   1.0000   1.0000   1.0000   1.0000   1.0000   1.0000
     1.0000   1.0000   1.0000   1.0000   1.0000   1.0000   1.0000   0.0000
     0.0000   0.0000   0.0000

          k = 0.1667 0.0932-0.0000 (  3762 PWs)   bands (ev):

   -26.9758 -26.9328 -21.0710 -17.7457 -11.7678  -9.2403  -7.6619  -7.0611
    -6.2786  -6.0498  -5.6974  -4.2131  -3.5664  -3.4946  -2.4512   2.9326
     4.3956   6.1430   6.1815

     occupation numbers 
     1.0000   1.0000   1.0000   1.0000   1.0000   1.0000   1.0000   1.0000
     1.0000   1.0000   1.0000   1.0000   1.0000   1.0000   1.0000   0.0000
     0.0000   0.0000   0.0000

          k = 0.1667 0.1879-0.0000 (  3763 PWs)   bands (ev):

   -26.8093 -26.7743 -20.6353 -17.3778 -11.5242  -9.2855  -8.5558  -7.7937
    -7.1245  -6.5858  -5.9438  -4.5862  -4.2426  -3.6802  -3.0635   3.4904
     4.6307   6.4104   6.8366

     occupation numbers 
     1.0000   1.0000   1.0000   1.0000   1.0000   1.0000   1.0000   1.0000
     1.0000   1.0000   1.0000   1.0000   1.0000   1.0000   1.0000   0.0000
     0.0000   0.0000   0.0000

          k = 0.1667 0.2826-0.0000 (  3805 PWs)   bands (ev):

   -26.5720 -26.5475 -19.9092 -16.7677 -11.2565  -9.7219  -9.6580  -8.4671
    -8.1105  -7.5768  -6.3475  -5.3425  -4.5057  -4.0181  -3.8447   4.3924
     4.8263   6.9378   7.9040

     occupation numbers 
     1.0000   1.0000   1.0000   1.0000   1.0000   1.0000   1.0000   1.0000
     1.0000   1.0000   1.0000   1.0000   1.0000   1.0000   1.0000   0.0000
     0.0000   0.0000   0.0000

          k = 0.1667 0.3773-0.0000 (  3819 PWs)   bands (ev):

   -26.3232 -26.3088 -18.9042 -15.9318 -11.9725 -10.8107 -10.0688  -9.0939
    -8.7714  -8.1219  -6.9681  -5.9456  -4.9555  -4.3895  -4.1550   4.6625
     5.2212   7.3699   8.0062

     occupation numbers 
     1.0000   1.0000   1.0000   1.0000   1.0000   1.0000   1.0000   1.0000
     1.0000   1.0000   1.0000   1.0000   1.0000   1.0000   1.0000   0.0000
     0.0000   0.0000   0.0000

          k = 0.1667-0.6645 0.0000 (  3821 PWs)   bands (ev):

   -26.1321 -26.1252 -17.6711 -14.9730 -13.6319 -11.9624  -9.9655  -9.5860
    -9.0372  -8.1738  -7.5734  -6.3217  -5.3991  -4.4903  -4.3533   4.4931
     5.6975   7.2194   7.8669

     occupation numbers 
     1.0000   1.0000   1.0000   1.0000   1.0000   1.0000   1.0000   1.0000
     1.0000   1.0000   1.0000   1.0000   1.0000   1.0000   1.0000   0.0000
     0.0000   0.0000   0.0000

          k = 0.1667-0.5698 0.0000 (  3812 PWs)   bands (ev):

   -26.0572 -26.0538 -16.6976 -15.1444 -13.6860 -13.0383 -10.0898  -9.3526
    -9.2245  -8.1778  -7.8236  -6.4665  -5.5573  -4.5041  -4.4350   4.4262
     5.7725   7.2302   7.8115

     occupation numbers 
     1.0000   1.0000   1.0000   1.0000   1.0000   1.0000   1.0000   1.0000
     1.0000   1.0000   1.0000   1.0000   1.0000   1.0000   1.0000   0.0000
     0.0000   0.0000   0.0000

          k = 0.1667-0.4751 0.0000 (  3810 PWs)   bands (ev):

   -26.1242 -26.1175 -17.6245 -14.9414 -13.6857 -12.0289  -9.9333  -9.5800
    -9.0252  -8.1939  -7.5307  -6.3493  -5.4023  -4.5040  -4.3207   4.4799
     5.6999   7.1730   7.8791

     occupation numbers 
     1.0000   1.0000   1.0000   1.0000   1.0000   1.0000   1.0000   1.0000
     1.0000   1.0000   1.0000   1.0000   1.0000   1.0000   1.0000   0.0000
     0.0000   0.0000   0.0000

          k = 0.1667-0.3804 0.0000 (  3817 PWs)   bands (ev):

   -26.3102 -26.2961 -18.8639 -15.8961 -12.0359 -10.8520 -10.0812  -9.0783
    -8.7230  -8.1371  -6.9212  -5.9812  -4.9787  -4.3888  -4.1205   4.6397
     5.2021   7.3462   7.9494

     occupation numbers 
     1.0000   1.0000   1.0000   1.0000   1.0000   1.0000   1.0000   1.0000
     1.0000   1.0000   1.0000   1.0000   1.0000   1.0000   1.0000   0.0000
     0.0000   0.0000   0.0000

          k = 0.1667-0.2857 0.0000 (  3789 PWs)   bands (ev):

   -26.5579 -26.5336 -19.8785 -16.7403 -11.2406  -9.7740  -9.6749  -8.4389
    -8.1211  -7.5752  -6.3054  -5.3673  -4.5345  -4.0258  -3.8191   4.3474
     4.7824   6.8593   7.8467

     occupation numbers 
     1.0000   1.0000   1.0000   1.0000   1.0000   1.0000   1.0000   1.0000
     1.0000   1.0000   1.0000   1.0000   1.0000   1.0000   1.0000   0.0000
     0.0000   0.0000   0.0000

          k = 0.1667-0.1909-0.0000 (  3777 PWs)   bands (ev):

   -26.7977 -26.7629 -20.6147 -17.3593 -11.5069  -9.2799  -8.5205  -7.7807
    -7.1718  -6.6060  -5.9312  -4.5740  -4.2664  -3.6827  -3.0955   3.4192
     4.5795   6.3193   6.7678

     occupation numbers 
     1.0000   1.0000   1.0000   1.0000   1.0000   1.0000   1.0000   1.0000
     1.0000   1.0000   1.0000   1.0000   1.0000   1.0000   1.0000   0.0000
     0.0000   0.0000   0.0000

          k = 0.2500-0.1443-0.0000 (  3796 PWs)   bands (ev):

   -26.6857 -26.6556 -20.3008 -17.0938 -11.3642  -9.7318  -9.0651  -8.3231
    -7.0626  -6.6753  -6.2333  -4.8690  -4.4980  -3.9593  -2.9918   2.9947
     4.3663   6.0679   7.1558

     occupation numbers 
     1.0000   1.0000   1.0000   1.0000   1.0000   1.0000   1.0000   1.0000
     1.0000   1.0000   1.0000   1.0000   1.0000   1.0000   1.0000   0.0000
     0.0000   0.0000   0.0000

          k = 0.2500-0.0496-0.0000 (  3774 PWs)   bands (ev):

   -26.7904 -26.7557 -20.6015 -17.3473 -11.4964  -9.2824  -8.5571  -7.7868
    -7.1534  -6.6057  -5.8888  -4.5893  -4.2766  -3.6902  -3.0665   3.3822
     4.5226   6.3261   6.6881

     occupation numbers 
     1.0000   1.0000   1.0000   1.0000   1.0000   1.0000   1.0000   1.0000
     1.0000   1.0000   1.0000   1.0000   1.0000   1.0000   1.0000   0.0000
     0.0000   0.0000   0.0000

          k = 0.2500 0.0451-0.0000 (  3768 PWs)   bands (ev):

   -26.7952 -26.7604 -20.6094 -17.3545 -11.5042  -9.2925  -8.6331  -7.8134
    -7.0842  -6.5851  -5.8530  -4.6200  -4.2653  -3.6875  -3.0048   3.4251
     4.5245   6.3984   6.7773

     occupation numbers 
     1.0000   1.0000   1.0000   1.0000   1.0000   1.0000   1.0000   1.0000
     1.0000   1.0000   1.0000   1.0000   1.0000   1.0000   1.0000   0.0000
     0.0000   0.0000   0.0000

          k = 0.2500 0.1398-0.0000 (  3781 PWs)   bands (ev):

   -26.6990 -26.6688 -20.3243 -17.1153 -11.3882  -9.7915  -9.1191  -8.3579
    -6.9469  -6.6942  -6.1423  -4.9116  -4.5053  -3.8926  -2.9162   3.1154
     4.3802   6.2303   7.1647

     occupation numbers 
     1.0000   1.0000   1.0000   1.0000   1.0000   1.0000   1.0000   1.0000
     1.0000   1.0000   1.0000   1.0000   1.0000   1.0000   1.0000   0.0000
     0.0000   0.0000   0.0000

          k = 0.2500 0.2345-0.0000 (  3807 PWs)   bands (ev):

   -26.5248 -26.5021 -19.7484 -16.6328 -11.3606 -10.4565  -9.6286  -8.6454
    -7.8523  -7.2044  -6.5248  -5.4305  -4.7132  -4.1429  -3.4538   3.6630
     4.7371   6.5812   7.5272

     occupation numbers 
     1.0000   1.0000   1.0000   1.0000   1.0000   1.0000   1.0000   1.0000
     1.0000   1.0000   1.0000   1.0000   1.0000   1.0000   1.0000   0.0000
     0.0000   0.0000   0.0000

          k = 0.2500 0.3292-0.0000 (  3821 PWs)   bands (ev):

   -26.3158 -26.3014 -18.8896 -15.9165 -11.9040 -10.7808 -10.0699  -9.1296
    -8.7983  -8.1621  -6.9909  -5.9346  -4.9457  -4.4118  -4.2014   4.6173
     5.2525   7.3359   7.7936

     occupation numbers 
     1.0000   1.0000   1.0000   1.0000   1.0000   1.0000   1.0000   1.0000
     1.0000   1.0000   1.0000   1.0000   1.0000   1.0000   1.0000   0.0000
     0.0000   0.0000   0.0000

          k = 0.2500-0.7126 0.0000 (  3825 PWs)   bands (ev):

   -26.1275 -26.1198 -17.7765 -15.0013 -12.7873 -11.8130  -9.9995  -9.9590
    -9.5433  -8.4179  -7.5393  -6.2074  -5.2562  -4.9320  -4.4699   4.7973
     6.0398   7.0348   9.4250

     occupation numbers 
     1.0000   1.0000   1.0000   1.0000   1.0000   1.0000   1.0000   1.0000
     1.0000   1.0000   1.0000   1.0000   1.0000   1.0000   1.0000   0.0000
     0.0000   0.0000   0.0000

          k = 0.2500-0.6179 0.0000 (  3805 PWs)   bands (ev):

   -26.0132 -26.0096 -16.5566 -14.3803 -13.6422 -12.6734 -10.9715 -10.2037
    -9.1328  -8.4907  -8.0190  -6.1990  -5.6833  -5.1560  -4.5556   4.8090
     5.9623   7.7091   8.9207

     occupation numbers 
     1.0000   1.0000   1.0000   1.0000   1.0000   1.0000   1.0000   1.0000
     1.0000   1.0000   1.0000   1.0000   1.0000   1.0000   1.0000   0.0000
     0.0000   0.0000   0.0000

          k = 0.2500-0.5232 0.0000 (  3801 PWs)   bands (ev):

   -26.0075 -26.0040 -16.4954 -14.4198 -13.5905 -12.7649 -10.9613 -10.1897
    -9.1335  -8.4941  -8.0065  -6.2213  -5.6833  -5.1540  -4.5501   4.8027
     5.9738   7.7199   8.8792

     occupation numbers 
     1.0000   1.0000   1.0000   1.0000   1.0000   1.0000   1.0000   1.0000
     1.0000   1.0000   1.0000   1.0000   1.0000   1.0000   1.0000   0.0000
     0.0000   0.0000   0.0000

          k = 0.2500-0.4285 0.0000 (  3814 PWs)   bands (ev):

   -26.1123 -26.1048 -17.7084 -14.9380 -12.8618 -11.8734  -9.9977  -9.9206
    -9.5597  -8.4203  -7.5166  -6.2425  -5.2788  -4.9307  -4.4571   4.7826
     6.0682   6.9989   9.2127

     occupation numbers 
     1.0000   1.0000   1.0000   1.0000   1.0000   1.0000   1.0000   1.0000
     1.0000   1.0000   1.0000   1.0000   1.0000   1.0000   1.0000   0.0000
     0.0000   0.0000   0.0000

          k = 0.2500-0.3338-0.0000 (  3812 PWs)   bands (ev):

   -26.2959 -26.2818 -18.8352 -15.8664 -11.9023 -10.7990 -10.0820  -9.1365
    -8.7845  -8.2131  -6.9674  -5.9604  -4.9597  -4.4350  -4.2077   4.5298
     5.2717   7.2734   7.5318

     occupation numbers 
     1.0000   1.0000   1.0000   1.0000   1.0000   1.0000   1.0000   1.0000
     1.0000   1.0000   1.0000   1.0000   1.0000   1.0000   1.0000   0.0000
     0.0000   0.0000   0.0000

          k = 0.2500-0.2391-0.0000 (  3802 PWs)   bands (ev):

   -26.5058 -26.4835 -19.7093 -16.5971 -11.3207 -10.4127  -9.6211  -8.6211
    -7.9311  -7.2513  -6.5399  -5.4256  -4.7159  -4.1798  -3.5072   3.5021
     4.7514   6.3746   7.4007

     occupation numbers 
     1.0000   1.0000   1.0000   1.0000   1.0000   1.0000   1.0000   1.0000
     1.0000   1.0000   1.0000   1.0000   1.0000   1.0000   1.0000   0.0000
     0.0000   0.0000   0.0000

          k = 0.3333-0.1925-0.0000 (  3813 PWs)   bands (ev):

   -26.3870 -26.3695 -19.2470 -16.2104 -12.0548 -10.7210 -10.1814  -8.7532
    -7.6844  -7.3033  -6.6934  -5.8370  -4.8846  -4.2156  -3.3599   2.8244
     4.5420   5.7604   7.3952

     occupation numbers 
     1.0000   1.0000   1.0000   1.0000   1.0000   1.0000   1.0000   1.0000
     1.0000   1.0000   1.0000   1.0000   1.0000   1.0000   1.0000   0.0000
     0.0000   0.0000   0.0000

          k = 0.3333-0.0977-0.0000 (  3804 PWs)   bands (ev):

   -26.4979 -26.4757 -19.6909 -16.5806 -11.3286 -10.4374  -9.6566  -8.6265
    -7.8851  -7.2663  -6.4848  -5.4485  -4.7320  -4.1669  -3.4809   3.4616
     4.7178   6.3494   7.3566

     occupation numbers 
     1.0000   1.0000   1.0000   1.0000   1.0000   1.0000   1.0000   1.0000
     1.0000   1.0000   1.0000   1.0000   1.0000   1.0000   1.0000   0.0000
     0.0000   0.0000   0.0000

          k = 0.3333-0.0030-0.0000 (  3786 PWs)   bands (ev):

   -26.5426 -26.5186 -19.8466 -16.7112 -11.2210  -9.7741  -9.7261  -8.4138
    -8.1409  -7.5726  -6.2678  -5.3905  -4.5621  -4.0301  -3.8042   4.3130
     4.7131   6.7969   7.7493

     occupation numbers 
     1.0000   1.0000   1.0000   1.0000   1.0000   1.0000   1.0000   1.0000
     1.0000   1.0000   1.0000   1.0000   1.0000   1.0000   1.0000   0.0000
     0.0000   0.0000   0.0000

          k = 0.3333 0.0917-0.0000 (  3793 PWs)   bands (ev):

   -26.5096 -26.4873 -19.7123 -16.6007 -11.3801 -10.5029  -9.6975  -8.6561
    -7.7672  -7.2331  -6.4136  -5.4749  -4.7445  -4.1160  -3.4026   3.5918
     4.6746   6.5341   7.4276

     occupation numbers 
     1.0000   1.0000   1.0000   1.0000   1.0000   1.0000   1.0000   1.0000
     1.0000   1.0000   1.0000   1.0000   1.0000   1.0000   1.0000   0.0000
     0.0000   0.0000   0.0000

          k = 0.3333 0.1864-0.0000 (  3802 PWs)   bands (ev):

   -26.4077 -26.3900 -19.2899 -16.2512 -12.1287 -10.7785 -10.2099  -8.7804
    -7.5417  -7.3091  -6.5767  -5.8600  -4.8937  -4.1407  -3.2742   3.0091
     4.5457   5.9027   7.5263

     occupation numbers 
     1.0000   1.0000   1.0000   1.0000   1.0000   1.0000   1.0000   1.0000
     1.0000   1.0000   1.0000   1.0000   1.0000   1.0000   1.0000   0.0000
     0.0000   0.0000   0.0000

          k = 0.3333 0.2811-0.0000 (  3808 PWs)   bands (ev):

   -26.2640 -26.2519 -18.5870 -15.6724 -12.9796 -11.2843 -10.1660  -8.8905
    -8.3322  -7.5850  -7.0900  -6.1691  -5.0880  -4.3314  -3.7129   3.6388
     4.8251   6.1239   7.8222

     occupation numbers 
     1.0000   1.0000   1.0000   1.0000   1.0000   1.0000   1.0000   1.0000
     1.0000   1.0000   1.0000   1.0000   1.0000   1.0000   1.0000   0.0000
     0.0000   0.0000   0.0000

          k = 0.3333-0.7607 0.0000 (  3812 PWs)   bands (ev):

   -26.1167 -26.1098 -17.6306 -14.9075 -13.5967 -11.9125 -10.0178  -9.6242
    -9.0633  -8.2125  -7.6040  -6.3068  -5.4150  -4.5124  -4.4106   4.5092
     5.6151   7.1854   7.6345

     occupation numbers 
     1.0000   1.0000   1.0000   1.0000   1.0000   1.0000   1.0000   1.0000
     1.0000   1.0000   1.0000   1.0000   1.0000   1.0000   1.0000   0.0000
     0.0000   0.0000   0.0000

          k = 0.3333-0.6660 0.0000 (  3814 PWs)   bands (ev):

   -26.0053 -26.0017 -16.5212 -14.2610 -13.7324 -12.6576 -10.9902 -10.2642
    -9.1174  -8.4868  -8.0332  -6.1908  -5.6956  -5.1806  -4.5596   4.8430
     5.9178   7.7117   8.8475

     occupation numbers 
     1.0000   1.0000   1.0000   1.0000   1.0000   1.0000   1.0000   1.0000
     1.0000   1.0000   1.0000   1.0000   1.0000   1.0000   1.0000   0.0000
     0.0000   0.0000   0.0000

          k = 0.3333-0.5713 0.0000 (  3803 PWs)   bands (ev):

   -25.9597 -25.9571 -15.7779 -13.9885 -13.9627 -12.9035 -11.1680 -11.1500
    -8.6084  -8.5308  -8.5205  -5.8138  -5.7975  -5.7876  -4.5862   5.2808
     5.3407   8.5078   9.3087

     occupation numbers 
     1.0000   1.0000   1.0000   1.0000   1.0000   1.0000   1.0000   1.0000
     1.0000   1.0000   1.0000   1.0000   1.0000   1.0000   1.0000   0.0000
     0.0000   0.0000   0.0000

          k = 0.3333-0.4766-0.0000 (  3820 PWs)   bands (ev):

   -25.9922 -25.9887 -16.4238 -14.1880 -13.7685 -12.7341 -10.9974 -10.3079
    -9.1026  -8.4863  -8.0360  -6.2048  -5.7062  -5.2018  -4.5597   4.8685
     5.8863   7.7090   8.6952

     occupation numbers 
     1.0000   1.0000   1.0000   1.0000   1.0000   1.0000   1.0000   1.0000
     1.0000   1.0000   1.0000   1.0000   1.0000   1.0000   1.0000   0.0000
     0.0000   0.0000   0.0000

          k = 0.3333-0.3819-0.0000 (  3818 PWs)   bands (ev):

   -26.0945 -26.0878 -17.5447 -14.8112 -13.6171 -11.9355 -10.0427  -9.6419
    -9.0852  -8.2630  -7.5949  -6.3198  -5.4318  -4.5548  -4.4274   4.4926
     5.5279   7.0768   7.4447

     occupation numbers 
     1.0000   1.0000   1.0000   1.0000   1.0000   1.0000   1.0000   1.0000
     1.0000   1.0000   1.0000   1.0000   1.0000   1.0000   1.0000   0.0000
     0.0000   0.0000   0.0000

          k = 0.3333-0.2872-0.0000 (  3816 PWs)   bands (ev):

   -26.2392 -26.2275 -18.5225 -15.6086 -12.9408 -11.2504 -10.1415  -8.8885
    -8.4270  -7.6347  -7.1408  -6.1682  -5.0930  -4.3811  -3.7799   3.4452
     4.8550   5.9093   7.6488

     occupation numbers 
     1.0000   1.0000   1.0000   1.0000   1.0000   1.0000   1.0000   1.0000
     1.0000   1.0000   1.0000   1.0000   1.0000   1.0000   1.0000   0.0000
     0.0000   0.0000   0.0000

          k = 0.4167-0.2406-0.0000 (  3814 PWs)   bands (ev):

   -26.1575 -26.1493 -17.9389 -15.1503 -13.9684 -12.0560  -9.9986  -8.9434
    -8.0968  -7.6525  -7.0172  -6.5206  -5.1152  -4.3777  -3.5842   2.7917
     4.3972   5.2387   7.6405

     occupation numbers 
     1.0000   1.0000   1.0000   1.0000   1.0000   1.0000   1.0000   1.0000
     1.0000   1.0000   1.0000   1.0000   1.0000   1.0000   1.0000   0.0000
     0.0000   0.0000   0.0000

          k = 0.4167-0.1458-0.0000 (  3823 PWs)   bands (ev):

   -26.2331 -26.2215 -18.4994 -15.5879 -12.9792 -11.2861 -10.1353  -8.9022
    -8.3766  -7.6747  -7.0813  -6.1874  -5.0966  -4.3757  -3.7611   3.4173
     4.8315   5.8846   7.6343

     occupation numbers 
     1.0000   1.0000   1.0000   1.0000   1.0000   1.0000   1.0000   1.0000
     1.0000   1.0000   1.0000   1.0000   1.0000   1.0000   1.0000   0.0000
     0.0000   0.0000   0.0000

          k = 0.4167-0.0511-0.0000 (  3819 PWs)   bands (ev):

   -26.2819 -26.2680 -18.7930 -15.8277 -11.9647 -10.8413 -10.0893  -9.1208
    -8.7386  -8.2272  -6.9231  -5.9973  -4.9853  -4.4346  -4.1715   4.5074
     5.2366   7.2692   7.4669

     occupation numbers 
     1.0000   1.0000   1.0000   1.0000   1.0000   1.0000   1.0000   1.0000
     1.0000   1.0000   1.0000   1.0000   1.0000   1.0000   1.0000   0.0000
     0.0000   0.0000   0.0000

          k = 0.4167 0.0436-0.0000 (  3819 PWs)   bands (ev):

   -26.2888 -26.2749 -18.8071 -15.8421 -12.0301 -10.8644 -10.0898  -9.0960
    -8.7056  -8.1910  -6.8997  -6.0071  -4.9944  -4.4112  -4.1302   4.5749
     5.1961   7.3034   7.6777

     occupation numbers 
     1.0000   1.0000   1.0000   1.0000   1.0000   1.0000   1.0000   1.0000
     1.0000   1.0000   1.0000   1.0000   1.0000   1.0000   1.0000   0.0000
     0.0000   0.0000   0.0000

          k = 0.4167 0.1383-0.0000 (  3804 PWs)   bands (ev):

   -26.2522 -26.2404 -18.5418 -15.6331 -13.0540 -11.3529 -10.1545  -8.9141
    -8.2402  -7.6564  -6.9797  -6.2042  -5.0965  -4.3189  -3.6768   3.5904
     4.7817   6.0738   7.7788

     occupation numbers 
     1.0000   1.0000   1.0000   1.0000   1.0000   1.0000   1.0000   1.0000
     1.0000   1.0000   1.0000   1.0000   1.0000   1.0000   1.0000   0.0000
     0.0000   0.0000   0.0000

          k = 0.4167 0.2330-0.0000 (  3795 PWs)   bands (ev):

   -26.1839 -26.1756 -18.0111 -15.2398 -13.9963 -12.1052 -10.0306  -8.9714
    -7.9370  -7.6530  -6.8835  -6.5320  -5.1235  -4.2970  -3.4926   3.0192
     4.3672   5.4286   7.7365

     occupation numbers 
     1.0000   1.0000   1.0000   1.0000   1.0000   1.0000   1.0000   1.0000
     1.0000   1.0000   1.0000   1.0000   1.0000   1.0000   1.0000   0.0000
     0.0000   0.0000   0.0000

          k = 0.4167-0.8088 0.0000 (  3808 PWs)   bands (ev):

   -26.1046 -26.0995 -17.2725 -15.0526 -14.2403 -12.7286  -9.8196  -9.1050
    -8.5726  -7.7204  -7.4033  -6.5986  -5.2894  -4.4194  -3.8404   3.8063
     4.3798   5.9420   8.0401

     occupation numbers 
     1.0000   1.0000   1.0000   1.0000   1.0000   1.0000   1.0000   1.0000
     1.0000   1.0000   1.0000   1.0000   1.0000   1.0000   1.0000   0.0000
     0.0000   0.0000   0.0000

          k = 0.4167-0.7141 0.0000 (  3816 PWs)   bands (ev):

   -26.0357 -26.0322 -16.5882 -15.0806 -13.6577 -13.0526 -10.1718  -9.3750
    -9.2190  -8.2443  -7.8275  -6.4631  -5.5814  -4.5396  -4.4745   4.4790
     5.5838   7.1946   7.6307

     occupation numbers 
     1.0000   1.0000   1.0000   1.0000   1.0000   1.0000   1.0000   1.0000
     1.0000   1.0000   1.0000   1.0000   1.0000   1.0000   1.0000   0.0000
     0.0000   0.0000   0.0000

          k = 0.4167-0.6194-0.0000 (  3812 PWs)   bands (ev):

   -25.9934 -25.9899 -16.3922 -14.3614 -13.6049 -12.8475 -10.9718 -10.2364
    -9.1177  -8.4940  -8.0072  -6.2376  -5.6954  -5.1758  -4.5479   4.8325
     5.9372   7.7329   8.7700

     occupation numbers 
     1.0000   1.0000   1.0000   1.0000   1.0000   1.0000   1.0000   1.0000
     1.0000   1.0000   1.0000   1.0000   1.0000   1.0000   1.0000   0.0000
     0.0000   0.0000   0.0000

          k = 0.4167-0.5247-0.0000 (  3811 PWs)   bands (ev):

   -25.9860 -25.9826 -16.3557 -14.2564 -13.6857 -12.8323 -10.9892 -10.2942
    -9.1023  -8.4901  -8.0224  -6.2294  -5.7061  -5.1991  -4.5535   4.8646
     5.8940   7.7179   8.6620

     occupation numbers 
     1.0000   1.0000   1.0000   1.0000   1.0000   1.0000   1.0000   1.0000
     1.0000   1.0000   1.0000   1.0000   1.0000   1.0000   1.0000   0.0000
     0.0000   0.0000   0.0000

          k = 0.4167-0.4300-0.0000 (  3825 PWs)   bands (ev):

   -26.0157 -26.0123 -16.4790 -15.0291 -13.6107 -13.0778 -10.2560  -9.4046
    -9.2071  -8.2994  -7.8399  -6.4569  -5.6049  -4.5599  -4.5286   4.5310
     5.3773   7.1243   7.4579

     occupation numbers 
     1.0000   1.0000   1.0000   1.0000   1.0000   1.0000   1.0000   1.0000
     1.0000   1.0000   1.0000   1.0000   1.0000   1.0000   1.0000   0.0000
     0.0000   0.0000   0.0000

          k = 0.4167-0.3353-0.0000 (  3826 PWs)   bands (ev):

   -26.0776 -26.0726 -17.1687 -14.9493 -14.2389 -12.7155  -9.7889  -9.1017
    -8.6942  -7.7337  -7.5077  -6.5975  -5.2976  -4.4743  -3.9186   3.5832
     4.3960   5.7403   7.9290

     occupation numbers 
     1.0000   1.0000   1.0000   1.0000   1.0000   1.0000   1.0000   1.0000
     1.0000   1.0000   1.0000   1.0000   1.0000   1.0000   1.0000   0.0000
     0.0000   0.0000   0.0000

          k =-0.5000 0.2887 0.0000 (  3820 PWs)   bands (ev):

   -26.0705 -26.0666 -16.8692 -15.4331 -13.9904 -13.2448  -9.7252  -9.1248
    -8.2400  -7.7345  -7.1325  -6.7629  -5.2064  -4.4335  -3.6593   2.8595
     4.0979   5.1498   8.0843

     occupation numbers 
     1.0000   1.0000   1.0000   1.0000   1.0000   1.0000   1.0000   1.0000
     1.0000   1.0000   1.0000   1.0000   1.0000   1.0000   1.0000   0.0000
     0.0000   0.0000   0.0000

          k =-0.5000 0.3834 0.0000 (  3827 PWs)   bands (ev):

   -26.0753 -26.0704 -17.1461 -14.9677 -14.2249 -12.7461  -9.7777  -9.1214
    -8.6690  -7.7666  -7.4676  -6.6044  -5.2982  -4.4732  -3.9114   3.5746
     4.3852   5.7313   7.9316

     occupation numbers 
     1.0000   1.0000   1.0000   1.0000   1.0000   1.0000   1.0000   1.0000
     1.0000   1.0000   1.0000   1.0000   1.0000   1.0000   1.0000   0.0000
     0.0000   0.0000   0.0000

          k =-0.5000 0.4781 0.0000 (  3815 PWs)   bands (ev):

   -26.0860 -26.0795 -17.4948 -14.7692 -13.6816 -12.0070 -10.0059  -9.6310
    -9.0789  -8.2785  -7.5554  -6.3503  -5.4340  -4.5720  -4.3906   4.4814
     5.5107   7.0307   7.4657

     occupation numbers 
     1.0000   1.0000   1.0000   1.0000   1.0000   1.0000   1.0000   1.0000
     1.0000   1.0000   1.0000   1.0000   1.0000   1.0000   1.0000   0.0000
     0.0000   0.0000   0.0000

          k =-0.5000 0.5728 0.0000 (  3807 PWs)   bands (ev):

   -26.0959 -26.0886 -17.6364 -14.8656 -12.9367 -11.9377  -9.9631  -9.9210
    -9.5750  -8.4225  -7.4930  -6.2790  -5.3032  -4.9299  -4.4430   4.7757
     6.0849   6.9669   9.1114

     occupation numbers 
     1.0000   1.0000   1.0000   1.0000   1.0000   1.0000   1.0000   1.0000
     1.0000   1.0000   1.0000   1.0000   1.0000   1.0000   1.0000   0.0000
     0.0000   0.0000   0.0000

          k =-0.5000 0.6675 0.0000 (  3809 PWs)   bands (ev):

   -26.1003 -26.0937 -17.5340 -14.8344 -13.7145 -12.0506  -9.9482  -9.6077
    -9.0451  -8.2478  -7.5222  -6.3648  -5.4204  -4.5443  -4.3402   4.4849
     5.6008   7.0912   7.6699

     occupation numbers 
     1.0000   1.0000   1.0000   1.0000   1.0000   1.0000   1.0000   1.0000
     1.0000   1.0000   1.0000   1.0000   1.0000   1.0000   1.0000   0.0000
     0.0000   0.0000   0.0000

          k =-0.5000 0.7622 0.0000 (  3818 PWs)   bands (ev):

   -26.1001 -26.0951 -17.2297 -15.0827 -14.2192 -12.7862  -9.8000  -9.1357
    -8.5298  -7.7651  -7.3455  -6.6108  -5.2913  -4.4163  -3.8270   3.7948
     4.3556   5.9248   8.0319

     occupation numbers 
     1.0000   1.0000   1.0000   1.0000   1.0000   1.0000   1.0000   1.0000
     1.0000   1.0000   1.0000   1.0000   1.0000   1.0000   1.0000   0.0000
     0.0000   0.0000   0.0000

          k =-0.5000-0.2796 0.0001 (  3802 PWs)   bands (ev):

   -26.0991 -26.0952 -16.9899 -15.4935 -14.0471 -13.2486  -9.7666  -9.1483
    -8.0744  -7.7351  -6.9928  -6.7708  -5.2139  -4.3507  -3.5657   3.1244
     4.0452   5.3573   8.1064

     occupation numbers 
     1.0000   1.0000   1.0000   1.0000   1.0000   1.0000   1.0000   1.0000
     1.0000   1.0000   1.0000   1.0000   1.0000   1.0000   1.0000   0.0000
     0.0000   0.0000   0.0000

     the Fermi energy is     0.5309 ev

!    total energy              =    -189.93956707 Ry
     Harris-Foulkes estimate   =    -189.93956719 Ry
     estimated scf accuracy    <       0.00000013 Ry

     total all-electron energy =      -701.911682 Ry

     The total energy is the sum of the following terms:

     one-electron contribution =   -1553.25788444 Ry
     hartree contribution      =     786.44283502 Ry
     xc contribution           =     -37.28447652 Ry
     ewald contribution        =     659.15916604 Ry
     one-center paw contrib.   =     -44.99920717 Ry
      -> PAW hartree energy AE =     118.71795400 Ry
      -> PAW hartree energy PS =    -118.63771648 Ry
      -> PAW xc energy AE      =     -80.74677407 Ry
      -> PAW xc energy PS      =      35.66732939 Ry
      -> total E_H with PAW    =     786.52307254 Ry
      -> total E_XC with PAW   =     -82.36392120 Ry
     smearing contrib. (-TS)   =      -0.00000000 Ry

     convergence has been achieved in   8 iterations

     negative rho (up, down):  6.648E-04 0.000E+00

     Forces acting on atoms (cartesian axes, Ry/au):

     atom    1 type  1   force =     0.00134319   -0.00175081   -0.01140945
     atom    2 type  1   force =    -0.00161140    0.00224810    0.00307510
     atom    3 type  1   force =    -0.00134482    0.00175032    0.01157662
     atom    4 type  1   force =     0.00161124   -0.00224978   -0.00302569
     atom    5 type  2   force =     0.00011306   -0.00019885    0.01594827
     atom    6 type  2   force =    -0.00011127    0.00020102   -0.01616485
     The non-local contrib.  to forces
     atom    1 type  1   force =     0.00561903   -0.00945812   -0.41152138
     atom    2 type  1   force =    -0.00541148    0.00904989    0.09885951
     atom    3 type  1   force =    -0.00562063    0.00945732    0.41144918
     atom    4 type  1   force =     0.00540844   -0.00905017   -0.09905820
     atom    5 type  2   force =    -0.00107919    0.00192523    3.17928984
     atom    6 type  2   force =     0.00110235   -0.00190989   -3.17980271
     The ionic contribution  to forces
     atom    1 type  1   force =     0.05503056   -0.09704606  -14.04017717
     atom    2 type  1   force =    -0.05700664    0.10075318   -9.56723946
     atom    3 type  1   force =    -0.05499127    0.09706682   14.04033931
     atom    4 type  1   force =     0.05699665   -0.10075637    9.56721839
     atom    5 type  2   force =     0.00590466   -0.01078474  -68.90732672
     atom    6 type  2   force =    -0.00593396    0.01076718   68.90718565
     The local contribution  to forces
     atom    1 type  1   force =    -0.05894840    0.10413390   14.43122313
     atom    2 type  1   force =     0.06044769   -0.10692470    9.47361663
     atom    3 type  1   force =     0.05891021   -0.10415305  -14.43192210
     atom    4 type  1   force =    -0.06043558    0.10692872   -9.47410147
     atom    5 type  2   force =    -0.00471899    0.00867195   65.75444350
     atom    6 type  2   force =     0.00472599   -0.00866525  -65.75440034
     The core correction contribution to forces
     atom    1 type  1   force =    -0.00035868    0.00062336    0.00909658
     atom    2 type  1   force =     0.00035848   -0.00062666   -0.00220354
     atom    3 type  1   force =     0.00035719   -0.00062348   -0.00917195
     atom    4 type  1   force =    -0.00035730    0.00062503    0.00206349
     atom    5 type  2   force =     0.00000603   -0.00000923   -0.01026902
     atom    6 type  2   force =    -0.00000597    0.00000832    0.01027020
     The Hubbard contrib.    to forces
     atom    1 type  1   force =     0.00000000    0.00000000    0.00000000
     atom    2 type  1   force =     0.00000000    0.00000000    0.00000000
     atom    3 type  1   force =     0.00000000    0.00000000    0.00000000
     atom    4 type  1   force =     0.00000000    0.00000000    0.00000000
     atom    5 type  2   force =     0.00000000    0.00000000    0.00000000
     atom    6 type  2   force =     0.00000000    0.00000000    0.00000000
     The SCF correction term to forces
     atom    1 type  1   force =     0.00000070   -0.00000355   -0.00012906
     atom    2 type  1   force =     0.00000058   -0.00000326   -0.00005649
     atom    3 type  1   force =    -0.00000030    0.00000304    0.00078372
     atom    4 type  1   force =    -0.00000095    0.00000334    0.00075365
     atom    5 type  2   force =     0.00000056   -0.00000171   -0.00028776
     atom    6 type  2   force =     0.00000033    0.00000100    0.00048390

     Total force =     0.028699     Total SCF correction =     0.001233


     Computing stress (Cartesian axis) and pressure


     negative rho (up, down):  6.648E-04 0.000E+00
          total   stress  (Ry/bohr**3)                   (kbar)     P=    7.44
   0.00028121  -0.00007185  -0.00000393         41.37    -10.57     -0.58
  -0.00007185   0.00003121   0.00000520        -10.57      4.59      0.76
  -0.00000393   0.00000520  -0.00016067         -0.58      0.76    -23.64

     kinetic stress (kbar)   9545.27    -10.51      1.85
                              -10.51   9507.87     -3.47
                                1.85     -3.47   8623.88

     local   stress (kbar)-305903.13     58.97     38.47
                               58.97-305686.08    -68.87
                               38.47    -68.87 295402.90

     nonloc. stress (kbar)   3248.73     -0.31     -0.60
                               -0.31   3247.73      1.02
                               -0.60      1.02   2973.25

     hartree stress (kbar) 150784.80    -19.51     -9.12
                              -19.51 150711.83     16.51
                               -9.12     16.51-146184.64

     exc-cor stress (kbar)  -1173.49     -0.06     -0.05
                               -0.06  -1173.72      0.08
                               -0.05      0.08  -1170.68

     corecor stress (kbar)   -972.41      0.21      0.10
                                0.21   -971.71     -0.18
                                0.10     -0.18   -963.23

     ewald   stress (kbar) 144511.60    -39.34    -31.24
                              -39.34 144368.68     55.67
                              -31.24     55.67-158705.12

     hubbard stress (kbar)      0.00      0.00      0.00
                                0.00      0.00      0.00
                                0.00      0.00      0.00

     london  stress (kbar)      0.00      0.00      0.00
                                0.00      0.00      0.00
                                0.00      0.00      0.00

     DFT-D3  stress (kbar)      0.00      0.00      0.00
                                0.00      0.00      0.00
                                0.00      0.00      0.00

     XDM     stress (kbar)      0.00      0.00      0.00
                                0.00      0.00      0.00
                                0.00      0.00      0.00

     dft-nl  stress (kbar)      0.00      0.00      0.00
                                0.00      0.00      0.00
                                0.00      0.00      0.00

     TS-vdW  stress (kbar)      0.00      0.00      0.00
                                0.00      0.00      0.00
                                0.00      0.00      0.00

     3D-RISM stress (kbar)      0.00      0.00      0.00
                                0.00      0.00      0.00
                                0.00      0.00      0.00



     Writing output data file pwscf.save\

     init_run     :     14.19s CPU      7.52s WALL (       1 calls)
     electrons    :    100.14s CPU     62.61s WALL (       1 calls)
     forces       :      7.58s CPU      1.42s WALL (       1 calls)
     stress       :     21.41s CPU      4.79s WALL (       1 calls)

     Called by init_run:
     wfcinit      :      4.06s CPU      2.98s WALL (       1 calls)
     wfcinit:atom :      0.12s CPU      0.07s WALL (      74 calls)
     wfcinit:wfcr :      3.27s CPU      2.24s WALL (      74 calls)
     potinit      :      3.86s CPU      0.58s WALL (       1 calls)
     hinit0       :      6.17s CPU      3.84s WALL (       1 calls)

     Called by electrons:
     c_bands      :     77.75s CPU     50.98s WALL (       8 calls)
     sum_band     :     18.03s CPU      9.39s WALL (       8 calls)
     v_of_rho     :      1.39s CPU      0.54s WALL (       9 calls)
     v_h          :      0.06s CPU      0.05s WALL (       9 calls)
     v_xc         :      1.59s CPU      0.61s WALL (      11 calls)
     newd         :      0.62s CPU      0.58s WALL (       9 calls)
     PAW_pot      :      2.44s CPU      1.23s WALL (       9 calls)
     mix_rho      :      0.16s CPU      0.07s WALL (       8 calls)

     Called by c_bands:
     init_us_2    :      1.94s CPU      0.83s WALL (    1406 calls)
     cegterg      :     75.05s CPU     49.30s WALL (     592 calls)

     Called by sum_band:
     sum_band:bec :      0.09s CPU      0.28s WALL (     592 calls)
     addusdens    :      1.20s CPU      0.75s WALL (       8 calls)

     Called by *egterg:
     h_psi        :     70.33s CPU     42.11s WALL (    2755 calls)
     s_psi        :      1.53s CPU      1.30s WALL (    2755 calls)
     g_psi        :      0.36s CPU      0.24s WALL (    2089 calls)
     cdiaghg      :      1.31s CPU      1.40s WALL (    2681 calls)
     cegterg:over :      2.22s CPU      2.38s WALL (    2089 calls)
     cegterg:upda :      0.86s CPU      1.33s WALL (    2089 calls)
     cegterg:last :      0.22s CPU      0.36s WALL (     593 calls)

     Called by h_psi:
     h_psi:pot    :     69.31s CPU     41.12s WALL (    2755 calls)
     h_psi:calbec :      5.05s CPU      2.04s WALL (    2755 calls)
     vloc_psi     :     62.73s CPU     37.68s WALL (    2755 calls)
     add_vuspsi   :      1.52s CPU      1.39s WALL (    2755 calls)

     General routines
     calbec       :      6.58s CPU      2.89s WALL (    3717 calls)
     fft          :      0.12s CPU      0.08s WALL (     140 calls)
     ffts         :      0.00s CPU      0.01s WALL (      17 calls)
     fftw         :     36.41s CPU     20.74s WALL (   78404 calls)
     interpolate  :      0.00s CPU      0.02s WALL (       9 calls)

     Parallel routines

     PAW routines
     PAW_pot      :      2.44s CPU      1.23s WALL (       9 calls)

     PWSCF        :   2m25.34s CPU   1m18.90s WALL


   This run was terminated on:  14:14:21   1Dec2024            

=------------------------------------------------------------------------------=
   JOB DONE.
=------------------------------------------------------------------------------=
