
     Program PWSCF v.6.4.1 starts on  1Dec2024 at 14:22:20 

     This program is part of the open-source Quantum ESPRESSO suite
     for quantum simulation of materials; please cite
         "P. Giannozzi et al., J. Phys.:Condens. Matter 21 395502 (2009);
         "P. Giannozzi et al., J. Phys.:Condens. Matter 29 465901 (2017);
          URL http://www.quantum-espresso.org", 
     in publications or presentations arising from this work. More details at
     http://www.quantum-espresso.org/quote

     Parallel version (MPI & OpenMP), running on      12 processor cores
     Number of MPI processes:                 1
     Threads/MPI process:                    12

     MPI processes distributed on     1 nodes
     Waiting for input...
     Reading input from standard input
Warning: card &IONS ignored
Warning: card ION_DYNAMICS = 'BFGS' ignored
Warning: card / ignored
Warning: card &CELL ignored
Warning: card CELL_DOFREE = 'ALL' ignored
Warning: card CELL_DYNAMICS = 'BFGS' ignored
Warning: card PRESS = 0.0 ignored
Warning: card PRESS_CONV_THR = 0.5 ignored
Warning: card / ignored

     Current dimensions of program PWSCF are:
     Max number of different atomic species (ntypx) = 10
     Max number of k-points (npk) =  40000
     Max angular momentum in pseudopotentials (lmaxx) =  3
               file C.pbesol-n-kjpaw_psl.1.0.0.UPF: wavefunction(s)  2S 2P renormalized
               file F.pbesol-n-kjpaw_psl.1.0.0.UPF: wavefunction(s)  2S 2P renormalized

     Subspace diagonalization in iterative solution of the eigenvalue problem:
     a serial algorithm will be used


     G-vector sticks info
     --------------------
     sticks:   dense  smooth     PW     G-vecs:    dense   smooth      PW
     Sum         583     297    101                88483    31297    6279



     bravais-lattice index     =            0
     lattice parameter (alat)  =       4.8680  a.u.
     unit-cell volume          =     765.6927 (a.u.)^3
     number of atoms/cell      =            6
     number of atomic types    =            2
     number of electrons       =        30.00
     number of Kohn-Sham states=           19
     kinetic-energy cutoff     =      45.0000  Ry
     charge density cutoff     =     360.0000  Ry
     convergence threshold     =      1.0E-06
     mixing beta               =       0.7000
     number of iterations used =            8  plain     mixing
     Exchange-correlation      = SLA PW PSX PSC ( 1  4 10  8 0 0)

     celldm(1)=   4.867956  celldm(2)=   0.000000  celldm(3)=   0.000000
     celldm(4)=   0.000000  celldm(5)=   0.000000  celldm(6)=   0.000000

     crystal axes: (cart. coord. in units of alat)
               a(1) = (   1.000000  -0.000000   0.000000 )  
               a(2) = (   0.494177   0.855940   0.000000 )  
               a(3) = (   0.000633   0.000371   7.754813 )  

     reciprocal axes: (cart. coord. in units 2 pi/alat)
               b(1) = (  1.000000 -0.577350 -0.000054 )  
               b(2) = (  0.000000  1.168306 -0.000056 )  
               b(3) = ( -0.000000  0.000000  0.128952 )  


     PseudoPot. # 1 for C  read from file:
     .\C.pbesol-n-kjpaw_psl.1.0.0.UPF
     MD5 check sum: f9b2fe17d1f478429498b05d17159f9e
     Pseudo is Projector augmented-wave + core cor, Zval =  4.0
     Generated using "atomic" code by A. Dal Corso v.6.3
     Shape of augmentation charge: PSQ
     Using radial grid of 1073 points,  4 beta functions with: 
                l(1) =   0
                l(2) =   0
                l(3) =   1
                l(4) =   1
     Q(r) pseudized with 0 coefficients 


     PseudoPot. # 2 for F  read from file:
     .\F.pbesol-n-kjpaw_psl.1.0.0.UPF
     MD5 check sum: d939582bcd23f1ece12cfc4fab8d9d36
     Pseudo is Projector augmented-wave + core cor, Zval =  7.0
     Generated using "atomic" code by A. Dal Corso v.6.3
     Shape of augmentation charge: PSQ
     Using radial grid of 1105 points,  4 beta functions with: 
                l(1) =   0
                l(2) =   0
                l(3) =   1
                l(4) =   1
     Q(r) pseudized with 0 coefficients 


     atomic species   valence    mass     pseudopotential
        C              4.00    12.01070     C ( 1.00)
        F              7.00    18.99840     F ( 1.00)

     No symmetry found


                                    s                        frac. trans.

      isym =  1     identity                                     

 cryst.   s( 1) = (     1          0          0      )
                  (     0          1          0      )
                  (     0          0          1      )

 cart.    s( 1) = (  1.0000000  0.0000000  0.0000000 )
                  ( -0.0000000  1.0000000  0.0000000 )
                  (  0.0000000  0.0000000  1.0000000 )


   Cartesian axes

     site n.     atom                  positions (alat units)
         1           C   tau(   1) = (   0.0003481   0.0002046   3.9039932  )
         2           C   tau(   2) = (   0.4984076   0.2855181   4.0992527  )
         3           C   tau(   3) = (   0.9964625   0.5708280   4.8977368  )
         4           C   tau(   4) = (   0.4984034   0.2855147   4.7024730  )
         5           F   tau(   5) = (   0.0003417   0.0001996   3.3689933  )
         6           F   tau(   6) = (   0.9964649   0.5708307   5.4327399  )

   Crystallographic axes

     site n.     atom                  positions (cryst. coord.)
         1           C   tau(   1) = (  0.0000192  0.0000206  0.5034284  )
         2           C   tau(   2) = (  0.3333424  0.3333434  0.5286075  )
         3           C   tau(   3) = (  0.6666304  0.6666281  0.6315738  )
         4           C   tau(   4) = (  0.3333076  0.3333056  0.6063941  )
         5           F   tau(   5) = (  0.0000446  0.0000447  0.4344390  )
         6           F   tau(   6) = (  0.6666024  0.6666014  0.7005636  )

     number of k points=    74  Marzari-Vanderbilt smearing, width (Ry)=  0.0200
                       cart. coord. in units 2pi/alat
        k(    1) = (   0.0000000   0.0000000   0.0000000), wk =   0.0138889
        k(    2) = (   0.0000000   0.0973589  -0.0000047), wk =   0.0277778
        k(    3) = (   0.0000000   0.1947177  -0.0000093), wk =   0.0277778
        k(    4) = (   0.0000001   0.2920766  -0.0000140), wk =   0.0277778
        k(    5) = (   0.0000001   0.3894354  -0.0000186), wk =   0.0277778
        k(    6) = (   0.0000001   0.4867943  -0.0000233), wk =   0.0277778
        k(    7) = (  -0.0000001  -0.5841532   0.0000280), wk =   0.0138889
        k(    8) = (   0.0833333  -0.0481125  -0.0000045), wk =   0.0277778
        k(    9) = (   0.0833333   0.0492464  -0.0000092), wk =   0.0277778
        k(   10) = (   0.0833334   0.1466052  -0.0000138), wk =   0.0277778
        k(   11) = (   0.0833334   0.2439641  -0.0000185), wk =   0.0277778
        k(   12) = (   0.0833334   0.3413229  -0.0000231), wk =   0.0277778
        k(   13) = (   0.0833334   0.4386818  -0.0000278), wk =   0.0277778
        k(   14) = (   0.0833332  -0.6322657   0.0000235), wk =   0.0277778
        k(   15) = (   0.0833332  -0.5349068   0.0000188), wk =   0.0277778
        k(   16) = (   0.0833332  -0.4375479   0.0000142), wk =   0.0277778
        k(   17) = (   0.0833333  -0.3401891   0.0000095), wk =   0.0277778
        k(   18) = (   0.0833333  -0.2428302   0.0000048), wk =   0.0277778
        k(   19) = (   0.0833333  -0.1454714   0.0000002), wk =   0.0277778
        k(   20) = (   0.1666666  -0.0962250  -0.0000090), wk =   0.0277778
        k(   21) = (   0.1666667   0.0011338  -0.0000137), wk =   0.0277778
        k(   22) = (   0.1666667   0.0984927  -0.0000183), wk =   0.0277778
        k(   23) = (   0.1666667   0.1958516  -0.0000230), wk =   0.0277778
        k(   24) = (   0.1666667   0.2932104  -0.0000276), wk =   0.0277778
        k(   25) = (   0.1666667   0.3905693  -0.0000323), wk =   0.0277778
        k(   26) = (   0.1666665  -0.6803782   0.0000190), wk =   0.0277778
        k(   27) = (   0.1666665  -0.5830193   0.0000143), wk =   0.0277778
        k(   28) = (   0.1666666  -0.4856604   0.0000097), wk =   0.0277778
        k(   29) = (   0.1666666  -0.3883016   0.0000050), wk =   0.0277778
        k(   30) = (   0.1666666  -0.2909427   0.0000003), wk =   0.0277778
        k(   31) = (   0.1666666  -0.1935839  -0.0000043), wk =   0.0277778
        k(   32) = (   0.2500000  -0.1443375  -0.0000135), wk =   0.0277778
        k(   33) = (   0.2500000  -0.0469787  -0.0000182), wk =   0.0277778
        k(   34) = (   0.2500000   0.0503802  -0.0000228), wk =   0.0277778
        k(   35) = (   0.2500000   0.1477391  -0.0000275), wk =   0.0277778
        k(   36) = (   0.2500000   0.2450979  -0.0000321), wk =   0.0277778
        k(   37) = (   0.2500001   0.3424568  -0.0000368), wk =   0.0277778
        k(   38) = (   0.2499999  -0.7284907   0.0000145), wk =   0.0277778
        k(   39) = (   0.2499999  -0.6311318   0.0000098), wk =   0.0277778
        k(   40) = (   0.2499999  -0.5337730   0.0000052), wk =   0.0277778
        k(   41) = (   0.2499999  -0.4364141   0.0000005), wk =   0.0277778
        k(   42) = (   0.2499999  -0.3390552  -0.0000042), wk =   0.0277778
        k(   43) = (   0.2500000  -0.2416964  -0.0000088), wk =   0.0277778
        k(   44) = (   0.3333333  -0.1924500  -0.0000180), wk =   0.0277778
        k(   45) = (   0.3333333  -0.0950912  -0.0000227), wk =   0.0277778
        k(   46) = (   0.3333333   0.0022677  -0.0000273), wk =   0.0277778
        k(   47) = (   0.3333334   0.0996265  -0.0000320), wk =   0.0277778
        k(   48) = (   0.3333334   0.1969854  -0.0000366), wk =   0.0277778
        k(   49) = (   0.3333334   0.2943443  -0.0000413), wk =   0.0277778
        k(   50) = (   0.3333332  -0.7766032   0.0000100), wk =   0.0277778
        k(   51) = (   0.3333332  -0.6792443   0.0000053), wk =   0.0277778
        k(   52) = (   0.3333332  -0.5818855   0.0000007), wk =   0.0277778
        k(   53) = (   0.3333332  -0.4845266  -0.0000040), wk =   0.0277778
        k(   54) = (   0.3333333  -0.3871677  -0.0000087), wk =   0.0277778
        k(   55) = (   0.3333333  -0.2898089  -0.0000133), wk =   0.0277778
        k(   56) = (   0.4166666  -0.2405625  -0.0000225), wk =   0.0277778
        k(   57) = (   0.4166666  -0.1432037  -0.0000272), wk =   0.0277778
        k(   58) = (   0.4166667  -0.0458448  -0.0000318), wk =   0.0277778
        k(   59) = (   0.4166667   0.0515140  -0.0000365), wk =   0.0277778
        k(   60) = (   0.4166667   0.1488729  -0.0000411), wk =   0.0277778
        k(   61) = (   0.4166667   0.2462318  -0.0000458), wk =   0.0277778
        k(   62) = (   0.4166665  -0.8247157   0.0000055), wk =   0.0277778
        k(   63) = (   0.4166665  -0.7273568   0.0000008), wk =   0.0277778
        k(   64) = (   0.4166665  -0.6299980  -0.0000038), wk =   0.0277778
        k(   65) = (   0.4166666  -0.5326391  -0.0000085), wk =   0.0277778
        k(   66) = (   0.4166666  -0.4352803  -0.0000132), wk =   0.0277778
        k(   67) = (   0.4166666  -0.3379214  -0.0000178), wk =   0.0277778
        k(   68) = (  -0.4999999   0.2886750   0.0000270), wk =   0.0138889
        k(   69) = (  -0.4999999   0.3860339   0.0000223), wk =   0.0277778
        k(   70) = (  -0.4999999   0.4833928   0.0000177), wk =   0.0277778
        k(   71) = (  -0.4999999   0.5807516   0.0000130), wk =   0.0277778
        k(   72) = (  -0.4999999   0.6781105   0.0000083), wk =   0.0277778
        k(   73) = (  -0.4999998   0.7754693   0.0000037), wk =   0.0277778
        k(   74) = (  -0.5000001  -0.2954781   0.0000550), wk =   0.0138889

                       cryst. coord.
        k(    1) = (   0.0000000   0.0000000   0.0000000), wk =   0.0138889
        k(    2) = (  -0.0000000   0.0833333   0.0000000), wk =   0.0277778
        k(    3) = (  -0.0000000   0.1666667   0.0000000), wk =   0.0277778
        k(    4) = (  -0.0000000   0.2500000   0.0000000), wk =   0.0277778
        k(    5) = (  -0.0000000   0.3333333   0.0000000), wk =   0.0277778
        k(    6) = (  -0.0000000   0.4166667   0.0000000), wk =   0.0277778
        k(    7) = (   0.0000000  -0.5000000   0.0000000), wk =   0.0138889
        k(    8) = (   0.0833333   0.0000000   0.0000000), wk =   0.0277778
        k(    9) = (   0.0833333   0.0833333   0.0000000), wk =   0.0277778
        k(   10) = (   0.0833333   0.1666667   0.0000000), wk =   0.0277778
        k(   11) = (   0.0833333   0.2500000   0.0000000), wk =   0.0277778
        k(   12) = (   0.0833333   0.3333333   0.0000000), wk =   0.0277778
        k(   13) = (   0.0833333   0.4166667  -0.0000000), wk =   0.0277778
        k(   14) = (   0.0833333  -0.5000000   0.0000000), wk =   0.0277778
        k(   15) = (   0.0833333  -0.4166667   0.0000000), wk =   0.0277778
        k(   16) = (   0.0833333  -0.3333333   0.0000000), wk =   0.0277778
        k(   17) = (   0.0833333  -0.2500000  -0.0000000), wk =   0.0277778
        k(   18) = (   0.0833333  -0.1666667   0.0000000), wk =   0.0277778
        k(   19) = (   0.0833333  -0.0833333   0.0000000), wk =   0.0277778
        k(   20) = (   0.1666667   0.0000000   0.0000000), wk =   0.0277778
        k(   21) = (   0.1666667   0.0833333   0.0000000), wk =   0.0277778
        k(   22) = (   0.1666667   0.1666667   0.0000000), wk =   0.0277778
        k(   23) = (   0.1666667   0.2500000   0.0000000), wk =   0.0277778
        k(   24) = (   0.1666667   0.3333333   0.0000000), wk =   0.0277778
        k(   25) = (   0.1666667   0.4166667   0.0000000), wk =   0.0277778
        k(   26) = (   0.1666667  -0.5000000  -0.0000000), wk =   0.0277778
        k(   27) = (   0.1666667  -0.4166667   0.0000000), wk =   0.0277778
        k(   28) = (   0.1666667  -0.3333333   0.0000000), wk =   0.0277778
        k(   29) = (   0.1666667  -0.2500000   0.0000000), wk =   0.0277778
        k(   30) = (   0.1666667  -0.1666667   0.0000000), wk =   0.0277778
        k(   31) = (   0.1666667  -0.0833333  -0.0000000), wk =   0.0277778
        k(   32) = (   0.2500000   0.0000000   0.0000000), wk =   0.0277778
        k(   33) = (   0.2500000   0.0833333   0.0000000), wk =   0.0277778
        k(   34) = (   0.2500000   0.1666667   0.0000000), wk =   0.0277778
        k(   35) = (   0.2500000   0.2500000   0.0000000), wk =   0.0277778
        k(   36) = (   0.2500000   0.3333333   0.0000000), wk =   0.0277778
        k(   37) = (   0.2500000   0.4166667   0.0000000), wk =   0.0277778
        k(   38) = (   0.2500000  -0.5000000   0.0000000), wk =   0.0277778
        k(   39) = (   0.2500000  -0.4166667   0.0000000), wk =   0.0277778
        k(   40) = (   0.2500000  -0.3333333  -0.0000000), wk =   0.0277778
        k(   41) = (   0.2500000  -0.2500000   0.0000000), wk =   0.0277778
        k(   42) = (   0.2500000  -0.1666667   0.0000000), wk =   0.0277778
        k(   43) = (   0.2500000  -0.0833333   0.0000000), wk =   0.0277778
        k(   44) = (   0.3333333   0.0000000   0.0000000), wk =   0.0277778
        k(   45) = (   0.3333333   0.0833333   0.0000000), wk =   0.0277778
        k(   46) = (   0.3333333   0.1666667   0.0000000), wk =   0.0277778
        k(   47) = (   0.3333333   0.2500000   0.0000000), wk =   0.0277778
        k(   48) = (   0.3333333   0.3333333   0.0000000), wk =   0.0277778
        k(   49) = (   0.3333333   0.4166667   0.0000000), wk =   0.0277778
        k(   50) = (   0.3333333  -0.5000000   0.0000000), wk =   0.0277778
        k(   51) = (   0.3333333  -0.4166667   0.0000000), wk =   0.0277778
        k(   52) = (   0.3333333  -0.3333333  -0.0000000), wk =   0.0277778
        k(   53) = (   0.3333333  -0.2500000   0.0000000), wk =   0.0277778
        k(   54) = (   0.3333333  -0.1666667   0.0000000), wk =   0.0277778
        k(   55) = (   0.3333333  -0.0833333   0.0000000), wk =   0.0277778
        k(   56) = (   0.4166667   0.0000000   0.0000000), wk =   0.0277778
        k(   57) = (   0.4166667   0.0833333   0.0000000), wk =   0.0277778
        k(   58) = (   0.4166667   0.1666667   0.0000000), wk =   0.0277778
        k(   59) = (   0.4166667   0.2500000   0.0000000), wk =   0.0277778
        k(   60) = (   0.4166667   0.3333333   0.0000000), wk =   0.0277778
        k(   61) = (   0.4166667   0.4166667   0.0000000), wk =   0.0277778
        k(   62) = (   0.4166667  -0.5000000  -0.0000000), wk =   0.0277778
        k(   63) = (   0.4166667  -0.4166667   0.0000000), wk =   0.0277778
        k(   64) = (   0.4166667  -0.3333333   0.0000000), wk =   0.0277778
        k(   65) = (   0.4166667  -0.2500000   0.0000000), wk =   0.0277778
        k(   66) = (   0.4166667  -0.1666667   0.0000000), wk =   0.0277778
        k(   67) = (   0.4166667  -0.0833333   0.0000000), wk =   0.0277778
        k(   68) = (  -0.5000000   0.0000000  -0.0000000), wk =   0.0138889
        k(   69) = (  -0.5000000   0.0833333  -0.0000000), wk =   0.0277778
        k(   70) = (  -0.5000000   0.1666667   0.0000000), wk =   0.0277778
        k(   71) = (  -0.5000000   0.2500000   0.0000000), wk =   0.0277778
        k(   72) = (  -0.5000000   0.3333333  -0.0000000), wk =   0.0277778
        k(   73) = (  -0.5000000   0.4166667  -0.0000000), wk =   0.0277778
        k(   74) = (  -0.5000000  -0.5000000   0.0000000), wk =   0.0138889

     Dense  grid:    88483 G-vectors     FFT dimensions: (  30,  30, 240)

     Smooth grid:    31297 G-vectors     FFT dimensions: (  24,  24, 162)

     Dynamical RAM for                 wfc:       1.13 MB

     Dynamical RAM for     wfc (w. buffer):      84.87 MB

     Dynamical RAM for           str. fact:       2.70 MB

     Dynamical RAM for           local pot:       0.00 MB

     Dynamical RAM for          nlocal pot:       2.86 MB

     Dynamical RAM for                qrad:       0.67 MB

     Dynamical RAM for          rho,v,vnew:       8.99 MB

     Dynamical RAM for               rhoin:       3.00 MB

     Dynamical RAM for            rho*nmix:      21.60 MB

     Dynamical RAM for           G-vectors:       5.30 MB

     Dynamical RAM for          h,s,v(r/c):       0.26 MB

     Dynamical RAM for          <psi|beta>:       0.01 MB

     Dynamical RAM for                 psi:       4.53 MB

     Dynamical RAM for                hpsi:       4.53 MB

     Dynamical RAM for                spsi:       4.53 MB

     Dynamical RAM for      wfcinit/wfcrot:       2.87 MB

     Dynamical RAM for           addusdens:      63.46 MB

     Dynamical RAM for          addusforce:      80.34 MB

     Dynamical RAM for         addusstress:      67.51 MB

     Estimated static dynamical RAM per process >     142.29 MB

     Estimated max dynamical RAM per process >     222.62 MB

     Check: negative core charge=   -0.000005

     Initial potential from superposition of free atoms

     starting charge   29.99983, renormalised to   30.00000

     negative rho (up, down):  4.967E-04 0.000E+00
     Starting wfcs are   24 randomized atomic wfcs
     Checking if some PAW data can be deallocated... 

     total cpu time spent up to now is       10.4 secs

     Self-consistent Calculation

     iteration #  1     ecut=    45.00 Ry     beta= 0.70
     Davidson diagonalization with overlap
     ethr =  1.00E-02,  avg # of iterations =  2.7

     negative rho (up, down):  5.831E-04 0.000E+00

     total cpu time spent up to now is       18.7 secs

     total energy              =    -189.87954468 Ry
     Harris-Foulkes estimate   =    -190.05791010 Ry
     estimated scf accuracy    <       0.32624101 Ry

     iteration #  2     ecut=    45.00 Ry     beta= 0.70
     Davidson diagonalization with overlap
     ethr =  1.09E-03,  avg # of iterations =  2.4

     negative rho (up, down):  6.126E-04 0.000E+00

     total cpu time spent up to now is       26.5 secs

     total energy              =    -189.90844140 Ry
     Harris-Foulkes estimate   =    -189.96722018 Ry
     estimated scf accuracy    <       0.09521062 Ry

     iteration #  3     ecut=    45.00 Ry     beta= 0.70
     Davidson diagonalization with overlap
     ethr =  3.17E-04,  avg # of iterations =  5.1

     negative rho (up, down):  6.199E-04 0.000E+00

     total cpu time spent up to now is       35.7 secs

     total energy              =    -189.93030404 Ry
     Harris-Foulkes estimate   =    -189.94986373 Ry
     estimated scf accuracy    <       0.03798959 Ry

     iteration #  4     ecut=    45.00 Ry     beta= 0.70
     Davidson diagonalization with overlap
     ethr =  1.27E-04,  avg # of iterations =  4.6

     negative rho (up, down):  6.213E-04 0.000E+00

     total cpu time spent up to now is       43.7 secs

     total energy              =    -189.93853007 Ry
     Harris-Foulkes estimate   =    -189.94301880 Ry
     estimated scf accuracy    <       0.01037214 Ry

     iteration #  5     ecut=    45.00 Ry     beta= 0.70
     Davidson diagonalization with overlap
     ethr =  3.46E-05,  avg # of iterations =  3.3

     negative rho (up, down):  6.249E-04 0.000E+00

     total cpu time spent up to now is       51.2 secs

     total energy              =    -189.94050940 Ry
     Harris-Foulkes estimate   =    -189.94052924 Ry
     estimated scf accuracy    <       0.00006047 Ry

     iteration #  6     ecut=    45.00 Ry     beta= 0.70
     Davidson diagonalization with overlap
     ethr =  2.02E-07,  avg # of iterations =  4.9

     negative rho (up, down):  6.262E-04 0.000E+00

     total cpu time spent up to now is       61.1 secs

     total energy              =    -189.94056440 Ry
     Harris-Foulkes estimate   =    -189.94057517 Ry
     estimated scf accuracy    <       0.00002633 Ry

     iteration #  7     ecut=    45.00 Ry     beta= 0.70
     Davidson diagonalization with overlap
     ethr =  8.78E-08,  avg # of iterations =  1.9

     negative rho (up, down):  6.267E-04 0.000E+00

     total cpu time spent up to now is       67.1 secs

     total energy              =    -189.94056548 Ry
     Harris-Foulkes estimate   =    -189.94056692 Ry
     estimated scf accuracy    <       0.00000310 Ry

     iteration #  8     ecut=    45.00 Ry     beta= 0.70
     Davidson diagonalization with overlap
     ethr =  1.03E-08,  avg # of iterations =  3.0

     negative rho (up, down):  6.268E-04 0.000E+00

     total cpu time spent up to now is       74.9 secs

     End of self-consistent calculation

          k = 0.0000 0.0000 0.0000 (  3895 PWs)   bands (ev):

   -27.2794 -27.2305 -21.4945 -18.0714 -12.1253  -9.3891  -6.2136  -5.7993
    -5.7334  -5.5332  -5.4708  -3.2691  -3.2026  -2.0115  -1.9577   1.9706
     4.3795   4.5815   4.7897

     occupation numbers 
     1.0000   1.0000   1.0000   1.0000   1.0000   1.0000   1.0000   1.0000
     1.0000   1.0000   1.0000   1.0000   1.0000   1.0000   1.0000   0.0000
     0.0000   0.0000   0.0000

          k = 0.0000 0.0974-0.0000 (  3863 PWs)   bands (ev):

   -27.2151 -27.1692 -21.3461 -17.9450 -12.0297  -9.3619  -6.5752  -6.0571
    -5.9968  -5.7307  -5.6375  -3.6464  -3.4456  -2.4898  -2.1961   2.3039
     4.2789   4.9714   5.1919

     occupation numbers 
     1.0000   1.0000   1.0000   1.0000   1.0000   1.0000   1.0000   1.0000
     1.0000   1.0000   1.0000   1.0000   1.0000   1.0000   1.0000   0.0000
     0.0000   0.0000   0.0000

          k = 0.0000 0.1947-0.0000 (  3874 PWs)   bands (ev):

   -27.0357 -26.9982 -20.9019 -17.5677 -11.7619  -9.3227  -7.7358  -7.1594
    -6.5241  -6.1658  -5.9499  -4.3416  -3.8046  -3.6140  -2.6405   2.7903
     4.0688   5.6940   5.9905

     occupation numbers 
     1.0000   1.0000   1.0000   1.0000   1.0000   1.0000   1.0000   1.0000
     1.0000   1.0000   1.0000   1.0000   1.0000   1.0000   1.0000   0.0000
     0.0000   0.0000   0.0000

          k = 0.0000 0.2921-0.0000 (  3894 PWs)   bands (ev):

   -26.7810 -26.7547 -20.1648 -16.9453 -11.4248  -9.8288  -9.1644  -8.3831
    -7.1804  -6.8011  -6.3820  -4.9924  -4.5996  -4.1329  -3.1064   2.7894
     4.1881   5.7336   6.9253

     occupation numbers 
     1.0000   1.0000   1.0000   1.0000   1.0000   1.0000   1.0000   1.0000
     1.0000   1.0000   1.0000   1.0000   1.0000   1.0000   1.0000   0.0000
     0.0000   0.0000   0.0000

          k = 0.0000 0.3894-0.0000 (  3927 PWs)   bands (ev):

   -26.5142 -26.4988 -19.1452 -16.0921 -12.1386 -10.8052 -10.1660  -8.8461
    -7.7660  -7.3942  -6.8052  -5.9197  -4.9546  -4.3808  -3.4662   2.5867
     4.3839   5.4655   7.1619

     occupation numbers 
     1.0000   1.0000   1.0000   1.0000   1.0000   1.0000   1.0000   1.0000
     1.0000   1.0000   1.0000   1.0000   1.0000   1.0000   1.0000   0.0000
     0.0000   0.0000   0.0000

          k = 0.0000 0.4868-0.0000 (  3929 PWs)   bands (ev):

   -26.3100 -26.3030 -17.8898 -15.0938 -13.9305 -12.0642 -10.0367  -9.0615
    -8.1563  -7.7216  -7.1047  -6.5715  -5.1648  -4.5366  -3.6859   2.5400
     4.2637   4.9598   7.4308

     occupation numbers 
     1.0000   1.0000   1.0000   1.0000   1.0000   1.0000   1.0000   1.0000
     1.0000   1.0000   1.0000   1.0000   1.0000   1.0000   1.0000   0.0000
     0.0000   0.0000   0.0000

          k =-0.0000-0.5842 0.0000 (  3918 PWs)   bands (ev):

   -26.2327 -26.2299 -16.9017 -15.3688 -13.9047 -13.1985  -9.7785  -9.2515
    -8.2920  -7.8011  -7.2118  -6.8020  -5.2472  -4.5900  -3.7595   2.5902
     3.9943   4.8657   7.8840

     occupation numbers 
     1.0000   1.0000   1.0000   1.0000   1.0000   1.0000   1.0000   1.0000
     1.0000   1.0000   1.0000   1.0000   1.0000   1.0000   1.0000   0.0000
     0.0000   0.0000   0.0000

          k = 0.0833-0.0481-0.0000 (  3881 PWs)   bands (ev):

   -27.2175 -27.1716 -21.3500 -17.9484 -12.0331  -9.3636  -6.6067  -6.0987
    -5.9223  -5.7999  -5.5742  -3.7095  -3.3765  -2.5434  -2.1358   2.3244
     4.3018   5.0839   5.1676

     occupation numbers 
     1.0000   1.0000   1.0000   1.0000   1.0000   1.0000   1.0000   1.0000
     1.0000   1.0000   1.0000   1.0000   1.0000   1.0000   1.0000   0.0000
     0.0000   0.0000   0.0000

          k = 0.0833 0.0492-0.0000 (  3873 PWs)   bands (ev):

   -27.2163 -27.1704 -21.3480 -17.9467 -12.0314  -9.3627  -6.5890  -6.0787
    -5.9628  -5.7622  -5.6064  -3.6769  -3.4126  -2.5144  -2.1683   2.3131
     4.2902   5.0027   5.2007

     occupation numbers 
     1.0000   1.0000   1.0000   1.0000   1.0000   1.0000   1.0000   1.0000
     1.0000   1.0000   1.0000   1.0000   1.0000   1.0000   1.0000   0.0000
     0.0000   0.0000   0.0000

          k = 0.0833 0.1466-0.0000 (  3861 PWs)   bands (ev):

   -27.0933 -27.0531 -21.0498 -17.6931 -11.8476  -9.3255  -7.3051  -6.7391
    -6.5032  -6.1555  -5.7129  -4.0868  -3.8939  -3.1094  -2.6198   2.7761
     4.2553   5.3584   5.7943

     occupation numbers 
     1.0000   1.0000   1.0000   1.0000   1.0000   1.0000   1.0000   1.0000
     1.0000   1.0000   1.0000   1.0000   1.0000   1.0000   1.0000   0.0000
     0.0000   0.0000   0.0000

          k = 0.0833 0.2440-0.0000 (  3889 PWs)   bands (ev):

   -26.8752 -26.8447 -20.4570 -17.1914 -11.5301  -9.3936  -8.6596  -7.8748
    -7.2761  -6.7452  -6.0596  -4.7298  -4.4047  -3.8548  -3.1918   3.2573
     4.2699   5.9746   6.3448

     occupation numbers 
     1.0000   1.0000   1.0000   1.0000   1.0000   1.0000   1.0000   1.0000
     1.0000   1.0000   1.0000   1.0000   1.0000   1.0000   1.0000   0.0000
     0.0000   0.0000   0.0000

          k = 0.0833 0.3413-0.0000 (  3915 PWs)   bands (ev):

   -26.6134 -26.5939 -19.5755 -16.4500 -11.4496 -10.4721  -9.7120  -8.6948
    -7.9731  -7.3537  -6.6208  -5.5490  -4.8120  -4.3299  -3.5975   3.2439
     4.5713   6.0105   7.0378

     occupation numbers 
     1.0000   1.0000   1.0000   1.0000   1.0000   1.0000   1.0000   1.0000
     1.0000   1.0000   1.0000   1.0000   1.0000   1.0000   1.0000   0.0000
     0.0000   0.0000   0.0000

          k = 0.0833 0.4387-0.0000 (  3926 PWs)   bands (ev):

   -26.3773 -26.3670 -18.4268 -15.4969 -13.0067 -11.3387 -10.1457  -9.0021
    -8.4413  -7.7331  -7.1773  -6.2518  -5.1627  -4.5210  -3.8701   3.1787
     4.6946   5.5857   7.3689

     occupation numbers 
     1.0000   1.0000   1.0000   1.0000   1.0000   1.0000   1.0000   1.0000
     1.0000   1.0000   1.0000   1.0000   1.0000   1.0000   1.0000   0.0000
     0.0000   0.0000   0.0000

          k = 0.0833-0.6323 0.0000 (  3928 PWs)   bands (ev):

   -26.2366 -26.2326 -17.1450 -14.9578 -14.1175 -12.7221  -9.8293  -9.2371
    -8.7123  -7.8267  -7.5351  -6.6482  -5.3546  -4.6082  -4.0146   3.3091
     4.2620   5.4461   7.6752

     occupation numbers 
     1.0000   1.0000   1.0000   1.0000   1.0000   1.0000   1.0000   1.0000
     1.0000   1.0000   1.0000   1.0000   1.0000   1.0000   1.0000   0.0000
     0.0000   0.0000   0.0000

          k = 0.0833-0.5349 0.0000 (  3928 PWs)   bands (ev):

   -26.2381 -26.2342 -17.1604 -14.9460 -14.1272 -12.7003  -9.8376  -9.2238
    -8.7286  -7.8042  -7.5625  -6.6433  -5.3546  -4.6085  -4.0197   3.3159
     4.2693   5.4526   7.6730

     occupation numbers 
     1.0000   1.0000   1.0000   1.0000   1.0000   1.0000   1.0000   1.0000
     1.0000   1.0000   1.0000   1.0000   1.0000   1.0000   1.0000   0.0000
     0.0000   0.0000   0.0000

          k = 0.0833-0.4375 0.0000 (  3932 PWs)   bands (ev):

   -26.3813 -26.3710 -18.4434 -15.5116 -12.9802 -11.3143 -10.1489  -8.9922
    -8.4759  -7.7044  -7.2195  -6.2383  -5.1614  -4.5237  -3.8837   3.1997
     4.7128   5.6019   7.3780

     occupation numbers 
     1.0000   1.0000   1.0000   1.0000   1.0000   1.0000   1.0000   1.0000
     1.0000   1.0000   1.0000   1.0000   1.0000   1.0000   1.0000   0.0000
     0.0000   0.0000   0.0000

          k = 0.0833-0.3402 0.0000 (  3922 PWs)   bands (ev):

   -26.6187 -26.5991 -19.5887 -16.4620 -11.4430 -10.4552  -9.6876  -8.6901
    -8.0055  -7.3415  -6.6597  -5.5330  -4.8014  -4.3387  -3.6166   3.2750
     4.5981   6.0247   7.0742

     occupation numbers 
     1.0000   1.0000   1.0000   1.0000   1.0000   1.0000   1.0000   1.0000
     1.0000   1.0000   1.0000   1.0000   1.0000   1.0000   1.0000   0.0000
     0.0000   0.0000   0.0000

          k = 0.0833-0.2428 0.0000 (  3897 PWs)   bands (ev):

   -26.8801 -26.8496 -20.4666 -17.2000 -11.5373  -9.3911  -8.6330  -7.8710
    -7.2894  -6.7439  -6.0889  -4.7195  -4.3985  -3.8491  -3.2130   3.2879
     4.3145   5.9632   6.4207

     occupation numbers 
     1.0000   1.0000   1.0000   1.0000   1.0000   1.0000   1.0000   1.0000
     1.0000   1.0000   1.0000   1.0000   1.0000   1.0000   1.0000   0.0000
     0.0000   0.0000   0.0000

          k = 0.0833-0.1455 0.0000 (  3867 PWs)   bands (ev):

   -27.0967 -27.0565 -21.0556 -17.6984 -11.8526  -9.3276  -7.3140  -6.7557
    -6.4862  -6.1433  -5.7241  -4.0953  -3.8860  -3.1067  -2.6152   2.8047
     4.3023   5.3898   5.7854

     occupation numbers 
     1.0000   1.0000   1.0000   1.0000   1.0000   1.0000   1.0000   1.0000
     1.0000   1.0000   1.0000   1.0000   1.0000   1.0000   1.0000   0.0000
     0.0000   0.0000   0.0000

          k = 0.1667-0.0962-0.0000 (  3877 PWs)   bands (ev):

   -27.0448 -27.0071 -20.9172 -17.5817 -11.7756  -9.3295  -7.8480  -7.2037
    -6.4062  -6.2141  -5.8592  -4.3945  -3.7181  -3.6633  -2.5518   2.8650
     4.1217   5.8817   5.9917

     occupation numbers 
     1.0000   1.0000   1.0000   1.0000   1.0000   1.0000   1.0000   1.0000
     1.0000   1.0000   1.0000   1.0000   1.0000   1.0000   1.0000   0.0000
     0.0000   0.0000   0.0000

          k = 0.1667 0.0011-0.0000 (  3880 PWs)   bands (ev):

   -27.1000 -27.0597 -21.0612 -17.7034 -11.8573  -9.3293  -7.3133  -6.7664
    -6.4763  -6.1308  -5.7420  -4.0907  -3.8909  -3.0981  -2.6188   2.8296
     4.3404   5.4327   5.7744

     occupation numbers 
     1.0000   1.0000   1.0000   1.0000   1.0000   1.0000   1.0000   1.0000
     1.0000   1.0000   1.0000   1.0000   1.0000   1.0000   1.0000   0.0000
     0.0000   0.0000   0.0000

          k = 0.1667 0.0985-0.0000 (  3875 PWs)   bands (ev):

   -27.0401 -27.0025 -20.9094 -17.5746 -11.7685  -9.3258  -7.7891  -7.1811
    -6.4668  -6.1897  -5.9056  -4.3669  -3.7636  -3.6369  -2.5982   2.8273
     4.0948   5.7660   6.0011

     occupation numbers 
     1.0000   1.0000   1.0000   1.0000   1.0000   1.0000   1.0000   1.0000
     1.0000   1.0000   1.0000   1.0000   1.0000   1.0000   1.0000   0.0000
     0.0000   0.0000   0.0000

          k = 0.1667 0.1959-0.0000 (  3886 PWs)   bands (ev):

   -26.8784 -26.8480 -20.4628 -17.1966 -11.5359  -9.4008  -8.7134  -7.8918
    -7.2270  -6.7307  -6.0357  -4.7505  -4.3946  -3.8552  -3.1478   3.2993
     4.2632   6.0364   6.4008

     occupation numbers 
     1.0000   1.0000   1.0000   1.0000   1.0000   1.0000   1.0000   1.0000
     1.0000   1.0000   1.0000   1.0000   1.0000   1.0000   1.0000   0.0000
     0.0000   0.0000   0.0000

          k = 0.1667 0.2932-0.0000 (  3894 PWs)   bands (ev):

   -26.6526 -26.6314 -19.7248 -16.5750 -11.3207  -9.8587  -9.7619  -8.4820
    -8.2296  -7.6549  -6.4217  -5.4954  -4.6429  -4.1891  -3.9382   4.2036
     4.4615   6.4390   7.4049

     occupation numbers 
     1.0000   1.0000   1.0000   1.0000   1.0000   1.0000   1.0000   1.0000
     1.0000   1.0000   1.0000   1.0000   1.0000   1.0000   1.0000   0.0000
     0.0000   0.0000   0.0000

          k = 0.1667 0.3906-0.0000 (  3915 PWs)   bands (ev):

   -26.4197 -26.4075 -18.7080 -15.7237 -12.0578 -10.9074 -10.0879  -9.1621
    -8.8260  -8.2597  -7.0396  -6.0712  -5.0487  -4.5671  -4.2968   4.3073
     5.1028   6.9388   7.1373

     occupation numbers 
     1.0000   1.0000   1.0000   1.0000   1.0000   1.0000   1.0000   1.0000
     1.0000   1.0000   1.0000   1.0000   1.0000   1.0000   1.0000   0.0000
     0.0000   0.0000   0.0000

          k = 0.1667-0.6804 0.0000 (  3913 PWs)   bands (ev):

   -26.2449 -26.2393 -17.4651 -14.7267 -13.6567 -12.0251 -10.0026  -9.6964
    -9.1370  -8.3256  -7.6412  -6.4025  -5.5010  -4.6750  -4.5013   4.3199
     5.3005   6.7984   7.1289

     occupation numbers 
     1.0000   1.0000   1.0000   1.0000   1.0000   1.0000   1.0000   1.0000
     1.0000   1.0000   1.0000   1.0000   1.0000   1.0000   1.0000   0.0000
     0.0000   0.0000   0.0000

          k = 0.1667-0.5830 0.0000 (  3914 PWs)   bands (ev):

   -26.1812 -26.1790 -16.5222 -14.9793 -13.5346 -13.0667 -10.2381  -9.5035
    -9.2552  -8.3334  -7.9178  -6.5044  -5.6708  -4.6546  -4.6304   4.4114
     5.1036   6.8847   7.1418

     occupation numbers 
     1.0000   1.0000   1.0000   1.0000   1.0000   1.0000   1.0000   1.0000
     1.0000   1.0000   1.0000   1.0000   1.0000   1.0000   1.0000   0.0000
     0.0000   0.0000   0.0000

          k = 0.1667-0.4857 0.0000 (  3913 PWs)   bands (ev):

   -26.2505 -26.2449 -17.5005 -14.7545 -13.6147 -11.9748 -10.0280  -9.7013
    -9.1426  -8.3121  -7.6709  -6.3811  -5.5010  -4.6605  -4.5282   4.3276
     5.3173   6.8349   7.1115

     occupation numbers 
     1.0000   1.0000   1.0000   1.0000   1.0000   1.0000   1.0000   1.0000
     1.0000   1.0000   1.0000   1.0000   1.0000   1.0000   1.0000   0.0000
     0.0000   0.0000   0.0000

          k = 0.1667-0.3883 0.0000 (  3909 PWs)   bands (ev):

   -26.4291 -26.4167 -18.7383 -15.7517 -12.0156 -10.8758 -10.0814  -9.1713
    -8.8589  -8.2483  -7.0718  -6.0455  -5.0322  -4.5650  -4.3235   4.3255
     5.1339   6.9402   7.1865

     occupation numbers 
     1.0000   1.0000   1.0000   1.0000   1.0000   1.0000   1.0000   1.0000
     1.0000   1.0000   1.0000   1.0000   1.0000   1.0000   1.0000   0.0000
     0.0000   0.0000   0.0000

          k = 0.1667-0.2909 0.0000 (  3892 PWs)   bands (ev):

   -26.6628 -26.6415 -19.7478 -16.5961 -11.3329  -9.8519  -9.7305  -8.5019
    -8.2153  -7.6543  -6.4481  -5.4792  -4.6237  -4.1852  -3.9509   4.2349
     4.5191   6.4797   7.4811

     occupation numbers 
     1.0000   1.0000   1.0000   1.0000   1.0000   1.0000   1.0000   1.0000
     1.0000   1.0000   1.0000   1.0000   1.0000   1.0000   1.0000   0.0000
     0.0000   0.0000   0.0000

          k = 0.1667-0.1936-0.0000 (  3878 PWs)   bands (ev):

   -26.8869 -26.8563 -20.4782 -17.2108 -11.5492  -9.4061  -8.7461  -7.9027
    -7.1892  -6.7167  -6.0381  -4.7623  -4.3783  -3.8501  -3.1216   3.3671
     4.3025   6.0911   6.5322

     occupation numbers 
     1.0000   1.0000   1.0000   1.0000   1.0000   1.0000   1.0000   1.0000
     1.0000   1.0000   1.0000   1.0000   1.0000   1.0000   1.0000   0.0000
     0.0000   0.0000   0.0000

          k = 0.2500-0.1443-0.0000 (  3887 PWs)   bands (ev):

   -26.7999 -26.7733 -20.1996 -16.9776 -11.4619  -9.9108  -9.2433  -8.4306
    -7.0155  -6.8252  -6.2550  -5.0540  -4.6093  -4.0342  -2.9955   2.9832
     4.2073   5.9674   6.9388

     occupation numbers 
     1.0000   1.0000   1.0000   1.0000   1.0000   1.0000   1.0000   1.0000
     1.0000   1.0000   1.0000   1.0000   1.0000   1.0000   1.0000   0.0000
     0.0000   0.0000   0.0000

          k = 0.2500-0.0470-0.0000 (  3880 PWs)   bands (ev):

   -26.8916 -26.8609 -20.4875 -17.2191 -11.5559  -9.4025  -8.7181  -7.8947
    -7.2041  -6.7157  -6.0701  -4.7506  -4.3708  -3.8485  -3.1430   3.3926
     4.3423   6.0964   6.5763

     occupation numbers 
     1.0000   1.0000   1.0000   1.0000   1.0000   1.0000   1.0000   1.0000
     1.0000   1.0000   1.0000   1.0000   1.0000   1.0000   1.0000   0.0000
     0.0000   0.0000   0.0000

          k = 0.2500 0.0504-0.0000 (  3899 PWs)   bands (ev):

   -26.8881 -26.8574 -20.4816 -17.2136 -11.5498  -9.3948  -8.6583  -7.8801
    -7.2559  -6.7279  -6.0973  -4.7284  -4.3811  -3.8475  -3.1905   3.3552
     4.3480   6.0290   6.5266

     occupation numbers 
     1.0000   1.0000   1.0000   1.0000   1.0000   1.0000   1.0000   1.0000
     1.0000   1.0000   1.0000   1.0000   1.0000   1.0000   1.0000   0.0000
     0.0000   0.0000   0.0000

          k = 0.2500 0.1477-0.0000 (  3899 PWs)   bands (ev):

   -26.7902 -26.7637 -20.1819 -16.9612 -11.4427  -9.8678  -9.2041  -8.4066
    -7.0992  -6.8131  -6.3190  -5.0229  -4.6040  -4.0849  -3.0523   2.8871
     4.1998   5.8463   6.9325

     occupation numbers 
     1.0000   1.0000   1.0000   1.0000   1.0000   1.0000   1.0000   1.0000
     1.0000   1.0000   1.0000   1.0000   1.0000   1.0000   1.0000   0.0000
     0.0000   0.0000   0.0000

          k = 0.2500 0.2451-0.0000 (  3911 PWs)   bands (ev):

   -26.6215 -26.6018 -19.5911 -16.4650 -11.4854 -10.5176  -9.7396  -8.7161
    -7.8890  -7.3314  -6.5712  -5.5672  -4.8202  -4.2945  -3.5411   3.3451
     4.5415   6.1448   7.0788

     occupation numbers 
     1.0000   1.0000   1.0000   1.0000   1.0000   1.0000   1.0000   1.0000
     1.0000   1.0000   1.0000   1.0000   1.0000   1.0000   1.0000   0.0000
     0.0000   0.0000   0.0000

          k = 0.2500 0.3425-0.0000 (  3906 PWs)   bands (ev):

   -26.4245 -26.4122 -18.7183 -15.7346 -12.0994 -10.9259 -10.0873  -9.1461
    -8.8032  -8.2343  -7.0229  -6.0776  -5.0553  -4.5511  -4.2667   4.3629
     5.0728   6.9742   7.2840

     occupation numbers 
     1.0000   1.0000   1.0000   1.0000   1.0000   1.0000   1.0000   1.0000
     1.0000   1.0000   1.0000   1.0000   1.0000   1.0000   1.0000   0.0000
     0.0000   0.0000   0.0000

          k = 0.2500-0.7285 0.0000 (  3913 PWs)   bands (ev):

   -26.2520 -26.2458 -17.5951 -14.8003 -12.9800 -11.9371 -10.0139  -9.9320
    -9.5673  -8.5022  -7.5921  -6.3339  -5.3481  -5.0578  -4.5476   4.6291
     5.9321   6.7398   8.7539

     occupation numbers 
     1.0000   1.0000   1.0000   1.0000   1.0000   1.0000   1.0000   1.0000
     1.0000   1.0000   1.0000   1.0000   1.0000   1.0000   1.0000   0.0000
     0.0000   0.0000   0.0000

          k = 0.2500-0.6311 0.0000 (  3905 PWs)   bands (ev):

   -26.1529 -26.1507 -16.3880 -14.2540 -13.6527 -12.8031 -10.9219 -10.2974
    -9.1563  -8.5748  -8.1055  -6.2850  -5.7664  -5.2909  -4.6349   4.7323
     5.7362   7.5080   8.3397

     occupation numbers 
     1.0000   1.0000   1.0000   1.0000   1.0000   1.0000   1.0000   1.0000
     1.0000   1.0000   1.0000   1.0000   1.0000   1.0000   1.0000   0.0000
     0.0000   0.0000   0.0000

          k = 0.2500-0.5338 0.0000 (  3894 PWs)   bands (ev):

   -26.1571 -26.1548 -16.4344 -14.2096 -13.7104 -12.7326 -10.9281 -10.3071
    -9.1547  -8.5716  -8.1161  -6.2680  -5.7674  -5.2921  -4.6389   4.7349
     5.7306   7.5095   8.3563

     occupation numbers 
     1.0000   1.0000   1.0000   1.0000   1.0000   1.0000   1.0000   1.0000
     1.0000   1.0000   1.0000   1.0000   1.0000   1.0000   1.0000   0.0000
     0.0000   0.0000   0.0000

          k = 0.2500-0.4364 0.0000 (  3911 PWs)   bands (ev):

   -26.2630 -26.2567 -17.6466 -14.8525 -12.9265 -11.8903 -10.0289  -9.9439
    -9.5531  -8.4987  -7.6098  -6.3084  -5.3320  -5.0577  -4.5570   4.6353
     5.9210   6.7734   8.8179

     occupation numbers 
     1.0000   1.0000   1.0000   1.0000   1.0000   1.0000   1.0000   1.0000
     1.0000   1.0000   1.0000   1.0000   1.0000   1.0000   1.0000   0.0000
     0.0000   0.0000   0.0000

          k = 0.2500-0.3391-0.0000 (  3905 PWs)   bands (ev):

   -26.4388 -26.4264 -18.7593 -15.7739 -12.1002 -10.9162 -10.0797  -9.1340
    -8.8160  -8.1957  -7.0386  -6.0590  -5.0457  -4.5336  -4.2609   4.4225
     5.0804   7.0125   7.4783

     occupation numbers 
     1.0000   1.0000   1.0000   1.0000   1.0000   1.0000   1.0000   1.0000
     1.0000   1.0000   1.0000   1.0000   1.0000   1.0000   1.0000   0.0000
     0.0000   0.0000   0.0000

          k = 0.2500-0.2417-0.0000 (  3903 PWs)   bands (ev):

   -26.6352 -26.6154 -19.6205 -16.4926 -11.5157 -10.5479  -9.7459  -8.7321
    -7.8324  -7.3016  -6.5560  -5.5708  -4.8180  -4.2659  -3.5018   3.4723
     4.5328   6.2999   7.1605

     occupation numbers 
     1.0000   1.0000   1.0000   1.0000   1.0000   1.0000   1.0000   1.0000
     1.0000   1.0000   1.0000   1.0000   1.0000   1.0000   1.0000   0.0000
     0.0000   0.0000   0.0000

          k = 0.3333-0.1925-0.0000 (  3911 PWs)   bands (ev):

   -26.5434 -26.5277 -19.2089 -16.1546 -12.2375 -10.8880 -10.2033  -8.8844
    -7.5647  -7.3985  -6.6452  -5.9516  -4.9655  -4.2723  -3.3419   2.8618
     4.4044   5.6686   7.3363

     occupation numbers 
     1.0000   1.0000   1.0000   1.0000   1.0000   1.0000   1.0000   1.0000
     1.0000   1.0000   1.0000   1.0000   1.0000   1.0000   1.0000   0.0000
     0.0000   0.0000   0.0000

          k = 0.3333-0.0951-0.0000 (  3902 PWs)   bands (ev):

   -26.6402 -26.6203 -19.6333 -16.5040 -11.5074 -10.5321  -9.7230  -8.7273
    -7.8612  -7.2906  -6.5948  -5.5554  -4.8078  -4.2753  -3.5201   3.4984
     4.5565   6.3119   7.2053

     occupation numbers 
     1.0000   1.0000   1.0000   1.0000   1.0000   1.0000   1.0000   1.0000
     1.0000   1.0000   1.0000   1.0000   1.0000   1.0000   1.0000   0.0000
     0.0000   0.0000   0.0000

          k = 0.3333 0.0023-0.0000 (  3895 PWs)   bands (ev):

   -26.6725 -26.6510 -19.7702 -16.6163 -11.3431  -9.8285  -9.7068  -8.5237
    -8.2055  -7.6532  -6.4767  -5.4621  -4.6039  -4.1793  -3.9689   4.2798
     4.5530   6.5315   7.5993

     occupation numbers 
     1.0000   1.0000   1.0000   1.0000   1.0000   1.0000   1.0000   1.0000
     1.0000   1.0000   1.0000   1.0000   1.0000   1.0000   1.0000   0.0000
     0.0000   0.0000   0.0000

          k = 0.3333 0.0996-0.0000 (  3910 PWs)   bands (ev):

   -26.6317 -26.6119 -19.6172 -16.4884 -11.4704 -10.4848  -9.6923  -8.7066
    -7.9504  -7.3076  -6.6493  -5.5359  -4.7994  -4.3126  -3.5786   3.4024
     4.5919   6.1711   7.1606

     occupation numbers 
     1.0000   1.0000   1.0000   1.0000   1.0000   1.0000   1.0000   1.0000
     1.0000   1.0000   1.0000   1.0000   1.0000   1.0000   1.0000   0.0000
     0.0000   0.0000   0.0000

          k = 0.3333 0.1970-0.0000 (  3924 PWs)   bands (ev):

   -26.5284 -26.5129 -19.1766 -16.1226 -12.1876 -10.8459 -10.1849  -8.8654
    -7.6657  -7.3970  -6.7246  -5.9357  -4.9604  -4.3274  -3.4047   2.7253
     4.4026   5.5582   7.2452

     occupation numbers 
     1.0000   1.0000   1.0000   1.0000   1.0000   1.0000   1.0000   1.0000
     1.0000   1.0000   1.0000   1.0000   1.0000   1.0000   1.0000   0.0000
     0.0000   0.0000   0.0000

          k = 0.3333 0.2943-0.0000 (  3919 PWs)   bands (ev):

   -26.3903 -26.3800 -18.4580 -15.5314 -13.0550 -11.3850 -10.1585  -9.0124
    -8.3437  -7.7210  -7.1054  -6.2637  -5.1600  -4.4829  -3.8097   3.3116
     4.6599   5.7296   7.4599

     occupation numbers 
     1.0000   1.0000   1.0000   1.0000   1.0000   1.0000   1.0000   1.0000
     1.0000   1.0000   1.0000   1.0000   1.0000   1.0000   1.0000   0.0000
     0.0000   0.0000   0.0000

          k = 0.3333-0.7766 0.0000 (  3911 PWs)   bands (ev):

   -26.2546 -26.2491 -17.4942 -14.7780 -13.6713 -12.0554  -9.9657  -9.6775
    -9.1161  -8.3019  -7.6169  -6.4123  -5.4896  -4.6572  -4.4654   4.3346
     5.3662   6.8602   7.2638

     occupation numbers 
     1.0000   1.0000   1.0000   1.0000   1.0000   1.0000   1.0000   1.0000
     1.0000   1.0000   1.0000   1.0000   1.0000   1.0000   1.0000   0.0000
     0.0000   0.0000   0.0000

          k = 0.3333-0.6792 0.0000 (  3900 PWs)   bands (ev):

   -26.1579 -26.1558 -16.4146 -14.3296 -13.5884 -12.8178 -10.9093 -10.2596
    -9.1663  -8.5762  -8.0948  -6.2907  -5.7585  -5.2744  -4.6314   4.7102
     5.7663   7.5385   8.4360

     occupation numbers 
     1.0000   1.0000   1.0000   1.0000   1.0000   1.0000   1.0000   1.0000
     1.0000   1.0000   1.0000   1.0000   1.0000   1.0000   1.0000   0.0000
     0.0000   0.0000   0.0000

          k = 0.3333-0.5819 0.0000 (  3873 PWs)   bands (ev):

   -26.1258 -26.1254 -15.8316 -13.9710 -13.9574 -12.8648 -11.1022 -11.0900
    -8.6608  -8.6218  -8.6143  -5.9098  -5.8538  -5.8463  -4.6564   5.1525
     5.1940   8.3804   9.0637

     occupation numbers 
     1.0000   1.0000   1.0000   1.0000   1.0000   1.0000   1.0000   1.0000
     1.0000   1.0000   1.0000   1.0000   1.0000   1.0000   1.0000   0.0000
     0.0000   0.0000   0.0000

          k = 0.3333-0.4845-0.0000 (  3898 PWs)   bands (ev):

   -26.1674 -26.1651 -16.4871 -14.3713 -13.5744 -12.7616 -10.9021 -10.2303
    -9.1747  -8.5742  -8.0951  -6.2793  -5.7507  -5.2586  -4.6326   4.6896
     5.7913   7.5516   8.5411

     occupation numbers 
     1.0000   1.0000   1.0000   1.0000   1.0000   1.0000   1.0000   1.0000
     1.0000   1.0000   1.0000   1.0000   1.0000   1.0000   1.0000   0.0000
     0.0000   0.0000   0.0000

          k = 0.3333-0.3872-0.0000 (  3908 PWs)   bands (ev):

   -26.2706 -26.2650 -17.5593 -14.8564 -13.6459 -12.0385  -9.9575  -9.6557
    -9.1043  -8.2612  -7.6234  -6.4011  -5.4770  -4.6273  -4.4532   4.3425
     5.4483   6.9411   7.3967

     occupation numbers 
     1.0000   1.0000   1.0000   1.0000   1.0000   1.0000   1.0000   1.0000
     1.0000   1.0000   1.0000   1.0000   1.0000   1.0000   1.0000   0.0000
     0.0000   0.0000   0.0000

          k = 0.3333-0.2898-0.0000 (  3914 PWs)   bands (ev):

   -26.4082 -26.3977 -18.5068 -15.5824 -13.0766 -11.4088 -10.1740  -9.0166
    -8.2755  -7.6864  -7.0690  -6.2624  -5.1553  -4.4463  -3.7618   3.4561
     4.6424   5.8914   7.5716

     occupation numbers 
     1.0000   1.0000   1.0000   1.0000   1.0000   1.0000   1.0000   1.0000
     1.0000   1.0000   1.0000   1.0000   1.0000   1.0000   1.0000   0.0000
     0.0000   0.0000   0.0000

          k = 0.4167-0.2406-0.0000 (  3901 PWs)   bands (ev):

   -26.3473 -26.3401 -17.9978 -15.2349 -13.9531 -12.1320 -10.0783  -9.1003
    -7.9329  -7.7167  -6.9230  -6.5854  -5.1742  -4.4209  -3.5541   2.8754
     4.2244   5.2470   7.5515

     occupation numbers 
     1.0000   1.0000   1.0000   1.0000   1.0000   1.0000   1.0000   1.0000
     1.0000   1.0000   1.0000   1.0000   1.0000   1.0000   1.0000   0.0000
     0.0000   0.0000   0.0000

          k = 0.4167-0.1432-0.0000 (  3911 PWs)   bands (ev):

   -26.4120 -26.4015 -18.5228 -15.5960 -13.0514 -11.3858 -10.1769  -9.0085
    -8.3058  -7.6625  -7.1062  -6.2505  -5.1531  -4.4501  -3.7745   3.4732
     4.6586   5.9080   7.5899

     occupation numbers 
     1.0000   1.0000   1.0000   1.0000   1.0000   1.0000   1.0000   1.0000
     1.0000   1.0000   1.0000   1.0000   1.0000   1.0000   1.0000   0.0000
     0.0000   0.0000   0.0000

          k = 0.4167-0.0458-0.0000 (  3905 PWs)   bands (ev):

   -26.4477 -26.4351 -18.7886 -15.8002 -12.0575 -10.8851 -10.0710  -9.1422
    -8.8508  -8.1837  -7.0720  -6.0340  -5.0305  -4.5316  -4.2867   4.4393
     5.1029   7.0320   7.5156

     occupation numbers 
     1.0000   1.0000   1.0000   1.0000   1.0000   1.0000   1.0000   1.0000
     1.0000   1.0000   1.0000   1.0000   1.0000   1.0000   1.0000   0.0000
     0.0000   0.0000   0.0000

          k = 0.4167 0.0515-0.0000 (  3907 PWs)   bands (ev):

   -26.4427 -26.4301 -18.7780 -15.7888 -12.0145 -10.8632 -10.0722  -9.1645
    -8.8700  -8.2109  -7.0885  -6.0269  -5.0237  -4.5468  -4.3195   4.3968
     5.1273   6.9983   7.3670

     occupation numbers 
     1.0000   1.0000   1.0000   1.0000   1.0000   1.0000   1.0000   1.0000
     1.0000   1.0000   1.0000   1.0000   1.0000   1.0000   1.0000   0.0000
     0.0000   0.0000   0.0000

          k = 0.4167 0.1489-0.0000 (  3921 PWs)   bands (ev):

   -26.3982 -26.3878 -18.4906 -15.5597 -13.0032 -11.3376 -10.1646  -8.9946
    -8.4086  -7.6682  -7.1850  -6.2382  -5.1564  -4.4895  -3.8359   3.3498
     4.6942   5.7624   7.4869

     occupation numbers 
     1.0000   1.0000   1.0000   1.0000   1.0000   1.0000   1.0000   1.0000
     1.0000   1.0000   1.0000   1.0000   1.0000   1.0000   1.0000   0.0000
     0.0000   0.0000   0.0000

          k = 0.4167 0.2462-0.0000 (  3922 PWs)   bands (ev):

   -26.3281 -26.3210 -17.9429 -15.1627 -13.9430 -12.0981 -10.0576  -9.0811
    -8.0441  -7.7207  -7.0123  -6.5789  -5.1700  -4.4792  -3.6203   2.7090
     4.2477   5.1009   7.4862

     occupation numbers 
     1.0000   1.0000   1.0000   1.0000   1.0000   1.0000   1.0000   1.0000
     1.0000   1.0000   1.0000   1.0000   1.0000   1.0000   1.0000   0.0000
     0.0000   0.0000   0.0000

          k = 0.4167-0.8247 0.0000 (  3931 PWs)   bands (ev):

   -26.2535 -26.2496 -17.2066 -15.0404 -14.1097 -12.7496  -9.8431  -9.2489
    -8.6133  -7.8260  -7.4487  -6.6525  -5.3468  -4.5703  -3.9543   3.4817
     4.2296   5.6035   7.7396

     occupation numbers 
     1.0000   1.0000   1.0000   1.0000   1.0000   1.0000   1.0000   1.0000
     1.0000   1.0000   1.0000   1.0000   1.0000   1.0000   1.0000   0.0000
     0.0000   0.0000   0.0000

          k = 0.4167-0.7274 0.0000 (  3910 PWs)   bands (ev):

   -26.1948 -26.1927 -16.6000 -15.0194 -13.5631 -13.0468 -10.1818  -9.4861
    -9.2605  -8.2918  -7.9091  -6.5082  -5.6527  -4.6410  -4.5926   4.3743
     5.2656   6.9658   7.2566

     occupation numbers 
     1.0000   1.0000   1.0000   1.0000   1.0000   1.0000   1.0000   1.0000
     1.0000   1.0000   1.0000   1.0000   1.0000   1.0000   1.0000   0.0000
     0.0000   0.0000   0.0000

          k = 0.4167-0.6300-0.0000 (  3897 PWs)   bands (ev):

   -26.1660 -26.1636 -16.5039 -14.2577 -13.6866 -12.6796 -10.9224 -10.2792
    -9.1626  -8.5699  -8.1153  -6.2578  -5.7603  -5.2768  -4.6388   4.7167
     5.7530   7.5367   8.4784

     occupation numbers 
     1.0000   1.0000   1.0000   1.0000   1.0000   1.0000   1.0000   1.0000
     1.0000   1.0000   1.0000   1.0000   1.0000   1.0000   1.0000   0.0000
     0.0000   0.0000   0.0000

          k = 0.4167-0.5326-0.0000 (  3898 PWs)   bands (ev):

   -26.1713 -26.1690 -16.5301 -14.3413 -13.6172 -12.6941 -10.9091 -10.2402
    -9.1726  -8.5712  -8.1051  -6.2635  -5.7516  -5.2596  -4.6361   4.6935
     5.7838   7.5493   8.5658

     occupation numbers 
     1.0000   1.0000   1.0000   1.0000   1.0000   1.0000   1.0000   1.0000
     1.0000   1.0000   1.0000   1.0000   1.0000   1.0000   1.0000   0.0000
     0.0000   0.0000   0.0000

          k = 0.4167-0.4353-0.0000 (  3911 PWs)   bands (ev):

   -26.2093 -26.2071 -16.6781 -15.0658 -13.5812 -13.0336 -10.1262  -9.4725
    -9.2623  -8.2441  -7.9054  -6.5105  -5.6344  -4.6159  -4.5661   4.3368
     5.4186   7.0282   7.3729

     occupation numbers 
     1.0000   1.0000   1.0000   1.0000   1.0000   1.0000   1.0000   1.0000
     1.0000   1.0000   1.0000   1.0000   1.0000   1.0000   1.0000   0.0000
     0.0000   0.0000   0.0000

          k = 0.4167-0.3379-0.0000 (  3923 PWs)   bands (ev):

   -26.2729 -26.2690 -17.2850 -15.1149 -14.1087 -12.7558  -9.8652  -9.2514
    -8.5274  -7.8057  -7.3867  -6.6505  -5.3389  -4.5310  -3.8992   3.6473
     4.2171   5.7572   7.8121

     occupation numbers 
     1.0000   1.0000   1.0000   1.0000   1.0000   1.0000   1.0000   1.0000
     1.0000   1.0000   1.0000   1.0000   1.0000   1.0000   1.0000   0.0000
     0.0000   0.0000   0.0000

          k =-0.5000 0.2887 0.0000 (  3898 PWs)   bands (ev):

   -26.2729 -26.2702 -17.0774 -15.4666 -13.9716 -13.2011  -9.8333  -9.2835
    -8.0614  -7.7953  -7.0227  -6.8102  -5.2552  -4.4717  -3.6253   2.9752
     3.9188   5.1847   7.8978

     occupation numbers 
     1.0000   1.0000   1.0000   1.0000   1.0000   1.0000   1.0000   1.0000
     1.0000   1.0000   1.0000   1.0000   1.0000   1.0000   1.0000   0.0000
     0.0000   0.0000   0.0000

          k =-0.5000 0.3860 0.0000 (  3921 PWs)   bands (ev):

   -26.2744 -26.2704 -17.2992 -15.1060 -14.1153 -12.7358  -9.8722  -9.2415
    -8.5408  -7.7919  -7.4049  -6.6465  -5.3385  -4.5319  -3.9039   3.6514
     4.2256   5.7633   7.8174

     occupation numbers 
     1.0000   1.0000   1.0000   1.0000   1.0000   1.0000   1.0000   1.0000
     1.0000   1.0000   1.0000   1.0000   1.0000   1.0000   1.0000   0.0000
     0.0000   0.0000   0.0000

          k =-0.5000 0.4834 0.0000 (  3904 PWs)   bands (ev):

   -26.2759 -26.2702 -17.5928 -14.8784 -13.6098 -11.9908  -9.9809  -9.6577
    -9.1132  -8.2453  -7.6547  -6.3813  -5.4763  -4.6145  -4.4781   4.3508
     5.4546   6.9817   7.3794

     occupation numbers 
     1.0000   1.0000   1.0000   1.0000   1.0000   1.0000   1.0000   1.0000
     1.0000   1.0000   1.0000   1.0000   1.0000   1.0000   1.0000   0.0000
     0.0000   0.0000   0.0000

          k =-0.5000 0.5808 0.0000 (  3921 PWs)   bands (ev):

   -26.2733 -26.2669 -17.6960 -14.8996 -12.8745 -11.8448 -10.0368  -9.9654
    -9.5388  -8.4951  -7.6270  -6.2838  -5.3169  -5.0579  -4.5657   4.6456
     5.9031   6.8097   8.9658

     occupation numbers 
     1.0000   1.0000   1.0000   1.0000   1.0000   1.0000   1.0000   1.0000
     1.0000   1.0000   1.0000   1.0000   1.0000   1.0000   1.0000   0.0000
     0.0000   0.0000   0.0000

          k =-0.5000 0.6781 0.0000 (  3907 PWs)   bands (ev):

   -26.2656 -26.2598 -17.5631 -14.8276 -13.5933 -11.9574 -10.0148  -9.6843
    -9.1305  -8.2727  -7.6777  -6.3712  -5.4890  -4.6292  -4.5177   4.3503
     5.3896   6.9400   7.2260

     occupation numbers 
     1.0000   1.0000   1.0000   1.0000   1.0000   1.0000   1.0000   1.0000
     1.0000   1.0000   1.0000   1.0000   1.0000   1.0000   1.0000   0.0000
     0.0000   0.0000   0.0000

          k =-0.5000 0.7755 0.0000 (  3927 PWs)   bands (ev):

   -26.2565 -26.2525 -17.2362 -15.0200 -14.1257 -12.7079  -9.8584  -9.2262
    -8.6427  -7.7919  -7.4919  -6.6435  -5.3465  -4.5715  -3.9641   3.4930
     4.2452   5.6162   7.7423

     occupation numbers 
     1.0000   1.0000   1.0000   1.0000   1.0000   1.0000   1.0000   1.0000
     1.0000   1.0000   1.0000   1.0000   1.0000   1.0000   1.0000   0.0000
     0.0000   0.0000   0.0000

          k =-0.5000-0.2955 0.0001 (  3926 PWs)   bands (ev):

   -26.2522 -26.2495 -16.9886 -15.4155 -13.9405 -13.1996  -9.8059  -9.2677
    -8.1759  -7.8001  -7.1152  -6.8069  -5.2517  -4.5312  -3.6925   2.7819
     3.9581   5.0272   7.8850

     occupation numbers 
     1.0000   1.0000   1.0000   1.0000   1.0000   1.0000   1.0000   1.0000
     1.0000   1.0000   1.0000   1.0000   1.0000   1.0000   1.0000   0.0000
     0.0000   0.0000   0.0000

     the Fermi energy is     0.2500 ev

!    total energy              =    -189.94056650 Ry
     Harris-Foulkes estimate   =    -189.94056661 Ry
     estimated scf accuracy    <       0.00000013 Ry

     total all-electron energy =      -701.912681 Ry

     The total energy is the sum of the following terms:

     one-electron contribution =   -1513.47257790 Ry
     hartree contribution      =     766.40915486 Ry
     xc contribution           =     -37.17985713 Ry
     ewald contribution        =     639.29971401 Ry
     one-center paw contrib.   =     -44.99700034 Ry
      -> PAW hartree energy AE =     117.68700771 Ry
      -> PAW hartree energy PS =    -117.60723878 Ry
      -> PAW xc energy AE      =     -80.49781890 Ry
      -> PAW xc energy PS      =      35.42104962 Ry
      -> total E_H with PAW    =     766.48892380 Ry
      -> total E_XC with PAW   =     -82.25662641 Ry
     smearing contrib. (-TS)   =      -0.00000000 Ry

     convergence has been achieved in   8 iterations

     negative rho (up, down):  6.268E-04 0.000E+00

     Forces acting on atoms (cartesian axes, Ry/au):

     atom    1 type  1   force =    -0.00022865    0.00070319   -0.00954614
     atom    2 type  1   force =     0.00043687   -0.00106162    0.00079912
     atom    3 type  1   force =     0.00022945   -0.00070446    0.00950326
     atom    4 type  1   force =    -0.00043849    0.00106128   -0.00087418
     atom    5 type  2   force =    -0.00010229    0.00017970    0.01734223
     atom    6 type  2   force =     0.00010310   -0.00017810   -0.01722429
     The non-local contrib.  to forces
     atom    1 type  1   force =    -0.00367263    0.00650251   -0.40655581
     atom    2 type  1   force =     0.00348597   -0.00620910    0.08633101
     atom    3 type  1   force =     0.00367024   -0.00650262    0.40659255
     atom    4 type  1   force =    -0.00348844    0.00620764   -0.08629305
     atom    5 type  2   force =     0.00078220   -0.00128227    3.17276718
     atom    6 type  2   force =    -0.00075853    0.00129684   -3.17262356
     The ionic contribution  to forces
     atom    1 type  1   force =    -0.04091652    0.07000273  -13.46309100
     atom    2 type  1   force =     0.04259648   -0.07268974   -9.42478019
     atom    3 type  1   force =     0.04095590   -0.06997972   13.46325108
     atom    4 type  1   force =    -0.04260480    0.07268344    9.42475920
     atom    5 type  2   force =    -0.00485890    0.00805165  -67.14412341
     atom    6 type  2   force =     0.00482784   -0.00806835   67.14398432
     The local contribution  to forces
     atom    1 type  1   force =     0.04411236   -0.07536749   13.85219998
     atom    2 type  1   force =    -0.04538857    0.07740172    9.34122538
     atom    3 type  1   force =    -0.04415061    0.07534511  -13.85222851
     atom    4 type  1   force =     0.04539923   -0.07739496   -9.34102649
     atom    5 type  2   force =     0.00397567   -0.00659390   63.99936742
     atom    6 type  2   force =    -0.00396853    0.00659812  -63.99927951
     The core correction contribution to forces
     atom    1 type  1   force =     0.00024876   -0.00043660    0.00848888
     atom    2 type  1   force =    -0.00025583    0.00043277   -0.00144314
     atom    3 type  1   force =    -0.00024739    0.00043469   -0.00857058
     atom    4 type  1   force =     0.00025449   -0.00043255    0.00130516
     atom    5 type  2   force =    -0.00000182    0.00000310   -0.01024974
     atom    6 type  2   force =     0.00000217   -0.00000326    0.01024929
     The Hubbard contrib.    to forces
     atom    1 type  1   force =     0.00000000    0.00000000    0.00000000
     atom    2 type  1   force =     0.00000000    0.00000000    0.00000000
     atom    3 type  1   force =     0.00000000    0.00000000    0.00000000
     atom    4 type  1   force =     0.00000000    0.00000000    0.00000000
     atom    5 type  2   force =     0.00000000    0.00000000    0.00000000
     atom    6 type  2   force =     0.00000000    0.00000000    0.00000000
     The SCF correction term to forces
     atom    1 type  1   force =    -0.00000085    0.00000189   -0.00060749
     atom    2 type  1   force =    -0.00000141    0.00000258   -0.00055324
     atom    3 type  1   force =     0.00000108   -0.00000207    0.00043943
     atom    4 type  1   force =     0.00000080   -0.00000244    0.00036171
     atom    5 type  2   force =     0.00000032    0.00000097   -0.00043851
     atom    6 type  2   force =    -0.00000008   -0.00000160    0.00042588

     Total force =     0.028002     Total SCF correction =     0.001172


     Computing stress (Cartesian axis) and pressure


     negative rho (up, down):  6.268E-04 0.000E+00
          total   stress  (Ry/bohr**3)                   (kbar)     P=  -19.07
  -0.00019167   0.00004943   0.00000105        -28.20      7.27      0.15
   0.00004943  -0.00002116  -0.00000266          7.27     -3.11     -0.39
   0.00000105  -0.00000266  -0.00017615          0.15     -0.39    -25.91

     kinetic stress (kbar)   9202.32      7.51     -1.43
                                7.51   9227.81      2.34
                               -1.43      2.34   8366.64

     local   stress (kbar)-289389.86    -45.75    -29.35
                              -45.75-289541.59     49.60
                              -29.35     49.60 279033.68

     nonloc. stress (kbar)   3157.54      0.20      0.41
                                0.20   3158.25     -0.72
                                0.41     -0.72   2892.87

     hartree stress (kbar) 142669.94     15.56      7.20
                               15.56 142720.98    -12.07
                                7.20    -12.07-138148.22

     exc-cor stress (kbar)  -1136.43      0.05      0.04
                                0.05  -1136.28     -0.06
                                0.04     -0.06  -1133.09

     corecor stress (kbar)   -943.76     -0.14     -0.07
                               -0.14   -944.25      0.12
                               -0.07      0.12   -936.17

     ewald   stress (kbar) 136412.06     29.85     23.36
                               29.85 136511.97    -39.60
                               23.36    -39.60-150101.62

     hubbard stress (kbar)      0.00      0.00      0.00
                                0.00      0.00      0.00
                                0.00      0.00      0.00

     london  stress (kbar)      0.00      0.00      0.00
                                0.00      0.00      0.00
                                0.00      0.00      0.00

     DFT-D3  stress (kbar)      0.00      0.00      0.00
                                0.00      0.00      0.00
                                0.00      0.00      0.00

     XDM     stress (kbar)      0.00      0.00      0.00
                                0.00      0.00      0.00
                                0.00      0.00      0.00

     dft-nl  stress (kbar)      0.00      0.00      0.00
                                0.00      0.00      0.00
                                0.00      0.00      0.00

     TS-vdW  stress (kbar)      0.00      0.00      0.00
                                0.00      0.00      0.00
                                0.00      0.00      0.00

     3D-RISM stress (kbar)      0.00      0.00      0.00
                                0.00      0.00      0.00
                                0.00      0.00      0.00



     Writing output data file pwscf.save\

     init_run     :     15.72s CPU      8.28s WALL (       1 calls)
     electrons    :     98.80s CPU     64.52s WALL (       1 calls)
     forces       :      7.83s CPU      1.40s WALL (       1 calls)
     stress       :     21.98s CPU      4.94s WALL (       1 calls)

     Called by init_run:
     wfcinit      :      5.05s CPU      3.43s WALL (       1 calls)
     wfcinit:atom :      0.12s CPU      0.07s WALL (      74 calls)
     wfcinit:wfcr :      3.95s CPU      2.60s WALL (      74 calls)
     potinit      :      4.47s CPU      0.64s WALL (       1 calls)
     hinit0       :      6.08s CPU      4.08s WALL (       1 calls)

     Called by electrons:
     c_bands      :     76.66s CPU     52.60s WALL (       8 calls)
     sum_band     :     17.55s CPU      9.72s WALL (       8 calls)
     v_of_rho     :      1.42s CPU      0.54s WALL (       9 calls)
     v_h          :      0.20s CPU      0.03s WALL (       9 calls)
     v_xc         :      1.61s CPU      0.61s WALL (      11 calls)
     newd         :      0.88s CPU      0.60s WALL (       9 calls)
     PAW_pot      :      2.59s CPU      1.19s WALL (       9 calls)
     mix_rho      :      0.39s CPU      0.08s WALL (       8 calls)

     Called by c_bands:
     init_us_2    :      1.14s CPU      0.86s WALL (    1406 calls)
     cegterg      :     74.80s CPU     51.11s WALL (     592 calls)

     Called by sum_band:
     sum_band:bec :      0.28s CPU      0.39s WALL (     592 calls)
     addusdens    :      1.22s CPU      0.80s WALL (       8 calls)

     Called by *egterg:
     h_psi        :     67.72s CPU     41.25s WALL (    2745 calls)
     s_psi        :      2.67s CPU      1.83s WALL (    2745 calls)
     g_psi        :      0.20s CPU      0.31s WALL (    2079 calls)
     cdiaghg      :      1.45s CPU      1.84s WALL (    2671 calls)
     cegterg:over :      2.53s CPU      2.63s WALL (    2079 calls)
     cegterg:upda :      1.34s CPU      2.17s WALL (    2079 calls)
     cegterg:last :      0.69s CPU      0.67s WALL (     597 calls)

     Called by h_psi:
     h_psi:pot    :     67.22s CPU     40.49s WALL (    2745 calls)
     h_psi:calbec :      5.52s CPU      2.00s WALL (    2745 calls)
     vloc_psi     :     59.64s CPU     36.56s WALL (    2745 calls)
     add_vuspsi   :      2.06s CPU      1.91s WALL (    2745 calls)

     General routines
     calbec       :      7.64s CPU      2.92s WALL (    3707 calls)
     fft          :      0.27s CPU      0.10s WALL (     140 calls)
     ffts         :      0.02s CPU      0.01s WALL (      17 calls)
     fftw         :     36.48s CPU     20.71s WALL (   78282 calls)
     interpolate  :      0.05s CPU      0.03s WALL (       9 calls)

     Parallel routines

     PAW routines
     PAW_pot      :      2.59s CPU      1.19s WALL (       9 calls)

     PWSCF        :   2m26.02s CPU   1m21.69s WALL


   This run was terminated on:  14:23:42   1Dec2024            

=------------------------------------------------------------------------------=
   JOB DONE.
=------------------------------------------------------------------------------=
