
     Program PWSCF v.6.4.1 starts on  1Dec2024 at 14:23:42 

     This program is part of the open-source Quantum ESPRESSO suite
     for quantum simulation of materials; please cite
         "P. Giannozzi et al., J. Phys.:Condens. Matter 21 395502 (2009);
         "P. Giannozzi et al., J. Phys.:Condens. Matter 29 465901 (2017);
          URL http://www.quantum-espresso.org", 
     in publications or presentations arising from this work. More details at
     http://www.quantum-espresso.org/quote

     Parallel version (MPI & OpenMP), running on      12 processor cores
     Number of MPI processes:                 1
     Threads/MPI process:                    12

     MPI processes distributed on     1 nodes
     Waiting for input...
     Reading input from standard input
Warning: card &IONS ignored
Warning: card ION_DYNAMICS = 'BFGS' ignored
Warning: card / ignored
Warning: card &CELL ignored
Warning: card CELL_DOFREE = 'ALL' ignored
Warning: card CELL_DYNAMICS = 'BFGS' ignored
Warning: card PRESS = 0.0 ignored
Warning: card PRESS_CONV_THR = 0.5 ignored
Warning: card / ignored

     Current dimensions of program PWSCF are:
     Max number of different atomic species (ntypx) = 10
     Max number of k-points (npk) =  40000
     Max angular momentum in pseudopotentials (lmaxx) =  3
               file C.pbesol-n-kjpaw_psl.1.0.0.UPF: wavefunction(s)  2S 2P renormalized
               file F.pbesol-n-kjpaw_psl.1.0.0.UPF: wavefunction(s)  2S 2P renormalized

     Subspace diagonalization in iterative solution of the eigenvalue problem:
     a serial algorithm will be used


     G-vector sticks info
     --------------------
     sticks:   dense  smooth     PW     G-vecs:    dense   smooth      PW
     Sum         585     295    103                88797    31413    6333



     bravais-lattice index     =            0
     lattice parameter (alat)  =       4.8869  a.u.
     unit-cell volume          =     768.6651 (a.u.)^3
     number of atoms/cell      =            6
     number of atomic types    =            2
     number of electrons       =        30.00
     number of Kohn-Sham states=           19
     kinetic-energy cutoff     =      45.0000  Ry
     charge density cutoff     =     360.0000  Ry
     convergence threshold     =      1.0E-06
     mixing beta               =       0.7000
     number of iterations used =            8  plain     mixing
     Exchange-correlation      = SLA PW PSX PSC ( 1  4 10  8 0 0)

     celldm(1)=   4.886853  celldm(2)=   0.000000  celldm(3)=   0.000000
     celldm(4)=   0.000000  celldm(5)=   0.000000  celldm(6)=   0.000000

     crystal axes: (cart. coord. in units of alat)
               a(1) = (   1.000000  -0.000000   0.000000 )  
               a(2) = (   0.492266   0.852630   0.000000 )  
               a(3) = (   0.000631   0.000370   7.724826 )  

     reciprocal axes: (cart. coord. in units 2 pi/alat)
               b(1) = (  1.000000 -0.577350 -0.000054 )  
               b(2) = (  0.000000  1.172842 -0.000056 )  
               b(3) = ( -0.000000  0.000000  0.129453 )  


     PseudoPot. # 1 for C  read from file:
     .\C.pbesol-n-kjpaw_psl.1.0.0.UPF
     MD5 check sum: f9b2fe17d1f478429498b05d17159f9e
     Pseudo is Projector augmented-wave + core cor, Zval =  4.0
     Generated using "atomic" code by A. Dal Corso v.6.3
     Shape of augmentation charge: PSQ
     Using radial grid of 1073 points,  4 beta functions with: 
                l(1) =   0
                l(2) =   0
                l(3) =   1
                l(4) =   1
     Q(r) pseudized with 0 coefficients 


     PseudoPot. # 2 for F  read from file:
     .\F.pbesol-n-kjpaw_psl.1.0.0.UPF
     MD5 check sum: d939582bcd23f1ece12cfc4fab8d9d36
     Pseudo is Projector augmented-wave + core cor, Zval =  7.0
     Generated using "atomic" code by A. Dal Corso v.6.3
     Shape of augmentation charge: PSQ
     Using radial grid of 1105 points,  4 beta functions with: 
                l(1) =   0
                l(2) =   0
                l(3) =   1
                l(4) =   1
     Q(r) pseudized with 0 coefficients 


     atomic species   valence    mass     pseudopotential
        C              4.00    12.01070     C ( 1.00)
        F              7.00    18.99840     F ( 1.00)

     No symmetry found


                                    s                        frac. trans.

      isym =  1     identity                                     

 cryst.   s( 1) = (     1          0          0      )
                  (     0          1          0      )
                  (     0          0          1      )

 cart.    s( 1) = (  1.0000000 -0.0000000  0.0000000 )
                  ( -0.0000000  1.0000000  0.0000000 )
                  (  0.0000000  0.0000000  1.0000000 )


   Cartesian axes

     site n.     atom                  positions (alat units)
         1           C   tau(   1) = (   0.0003468   0.0002038   3.8888966  )
         2           C   tau(   2) = (   0.4977693   0.2844140   4.0834011  )
         3           C   tau(   3) = (   0.9951870   0.5686206   4.8787974  )
         4           C   tau(   4) = (   0.4977650   0.2844106   4.6842888  )
         5           F   tau(   5) = (   0.0003406   0.0001988   3.3559655  )
         6           F   tau(   6) = (   0.9951893   0.5686233   5.4117317  )

   Crystallographic axes

     site n.     atom                  positions (cryst. coord.)
         1           C   tau(   1) = (  0.0000192  0.0000206  0.5034284  )
         2           C   tau(   2) = (  0.3333424  0.3333434  0.5286075  )
         3           C   tau(   3) = (  0.6666304  0.6666281  0.6315738  )
         4           C   tau(   4) = (  0.3333076  0.3333056  0.6063941  )
         5           F   tau(   5) = (  0.0000446  0.0000447  0.4344390  )
         6           F   tau(   6) = (  0.6666024  0.6666014  0.7005636  )

     number of k points=    74  Marzari-Vanderbilt smearing, width (Ry)=  0.0200
                       cart. coord. in units 2pi/alat
        k(    1) = (   0.0000000   0.0000000   0.0000000), wk =   0.0138889
        k(    2) = (   0.0000000   0.0977368  -0.0000047), wk =   0.0277778
        k(    3) = (   0.0000000   0.1954736  -0.0000094), wk =   0.0277778
        k(    4) = (   0.0000001   0.2932104  -0.0000140), wk =   0.0277778
        k(    5) = (   0.0000001   0.3909472  -0.0000187), wk =   0.0277778
        k(    6) = (   0.0000001   0.4886840  -0.0000234), wk =   0.0277778
        k(    7) = (  -0.0000001  -0.5864208   0.0000281), wk =   0.0138889
        k(    8) = (   0.0833333  -0.0481125  -0.0000045), wk =   0.0277778
        k(    9) = (   0.0833333   0.0496243  -0.0000092), wk =   0.0277778
        k(   10) = (   0.0833334   0.1473611  -0.0000139), wk =   0.0277778
        k(   11) = (   0.0833334   0.2450979  -0.0000185), wk =   0.0277778
        k(   12) = (   0.0833334   0.3428347  -0.0000232), wk =   0.0277778
        k(   13) = (   0.0833334   0.4405715  -0.0000279), wk =   0.0277778
        k(   14) = (   0.0833332  -0.6345333   0.0000236), wk =   0.0277778
        k(   15) = (   0.0833332  -0.5367965   0.0000189), wk =   0.0277778
        k(   16) = (   0.0833332  -0.4390597   0.0000142), wk =   0.0277778
        k(   17) = (   0.0833333  -0.3413229   0.0000095), wk =   0.0277778
        k(   18) = (   0.0833333  -0.2435861   0.0000049), wk =   0.0277778
        k(   19) = (   0.0833333  -0.1458493   0.0000002), wk =   0.0277778
        k(   20) = (   0.1666666  -0.0962250  -0.0000090), wk =   0.0277778
        k(   21) = (   0.1666667   0.0015118  -0.0000137), wk =   0.0277778
        k(   22) = (   0.1666667   0.0992486  -0.0000184), wk =   0.0277778
        k(   23) = (   0.1666667   0.1969854  -0.0000230), wk =   0.0277778
        k(   24) = (   0.1666667   0.2947222  -0.0000277), wk =   0.0277778
        k(   25) = (   0.1666667   0.3924590  -0.0000324), wk =   0.0277778
        k(   26) = (   0.1666665  -0.6826458   0.0000191), wk =   0.0277778
        k(   27) = (   0.1666665  -0.5849090   0.0000144), wk =   0.0277778
        k(   28) = (   0.1666666  -0.4871722   0.0000097), wk =   0.0277778
        k(   29) = (   0.1666666  -0.3894354   0.0000050), wk =   0.0277778
        k(   30) = (   0.1666666  -0.2916986   0.0000004), wk =   0.0277778
        k(   31) = (   0.1666666  -0.1939618  -0.0000043), wk =   0.0277778
        k(   32) = (   0.2500000  -0.1443375  -0.0000135), wk =   0.0277778
        k(   33) = (   0.2500000  -0.0466007  -0.0000182), wk =   0.0277778
        k(   34) = (   0.2500000   0.0511361  -0.0000229), wk =   0.0277778
        k(   35) = (   0.2500000   0.1488729  -0.0000275), wk =   0.0277778
        k(   36) = (   0.2500001   0.2466097  -0.0000322), wk =   0.0277778
        k(   37) = (   0.2500001   0.3443465  -0.0000369), wk =   0.0277778
        k(   38) = (   0.2499999  -0.7307583   0.0000146), wk =   0.0277778
        k(   39) = (   0.2499999  -0.6330215   0.0000099), wk =   0.0277778
        k(   40) = (   0.2499999  -0.5352847   0.0000052), wk =   0.0277778
        k(   41) = (   0.2499999  -0.4375479   0.0000005), wk =   0.0277778
        k(   42) = (   0.2499999  -0.3398111  -0.0000041), wk =   0.0277778
        k(   43) = (   0.2500000  -0.2420743  -0.0000088), wk =   0.0277778
        k(   44) = (   0.3333333  -0.1924500  -0.0000180), wk =   0.0277778
        k(   45) = (   0.3333333  -0.0947132  -0.0000227), wk =   0.0277778
        k(   46) = (   0.3333333   0.0030236  -0.0000274), wk =   0.0277778
        k(   47) = (   0.3333334   0.1007604  -0.0000320), wk =   0.0277778
        k(   48) = (   0.3333334   0.1984972  -0.0000367), wk =   0.0277778
        k(   49) = (   0.3333334   0.2962340  -0.0000414), wk =   0.0277778
        k(   50) = (   0.3333332  -0.7788708   0.0000101), wk =   0.0277778
        k(   51) = (   0.3333332  -0.6811340   0.0000054), wk =   0.0277778
        k(   52) = (   0.3333332  -0.5833972   0.0000007), wk =   0.0277778
        k(   53) = (   0.3333332  -0.4856604  -0.0000040), wk =   0.0277778
        k(   54) = (   0.3333333  -0.3879236  -0.0000086), wk =   0.0277778
        k(   55) = (   0.3333333  -0.2901868  -0.0000133), wk =   0.0277778
        k(   56) = (   0.4166666  -0.2405625  -0.0000225), wk =   0.0277778
        k(   57) = (   0.4166666  -0.1428257  -0.0000272), wk =   0.0277778
        k(   58) = (   0.4166667  -0.0450889  -0.0000318), wk =   0.0277778
        k(   59) = (   0.4166667   0.0526479  -0.0000365), wk =   0.0277778
        k(   60) = (   0.4166667   0.1503847  -0.0000412), wk =   0.0277778
        k(   61) = (   0.4166667   0.2481215  -0.0000459), wk =   0.0277778
        k(   62) = (   0.4166665  -0.8269834   0.0000056), wk =   0.0277778
        k(   63) = (   0.4166665  -0.7292465   0.0000009), wk =   0.0277778
        k(   64) = (   0.4166665  -0.6315097  -0.0000038), wk =   0.0277778
        k(   65) = (   0.4166666  -0.5337729  -0.0000084), wk =   0.0277778
        k(   66) = (   0.4166666  -0.4360361  -0.0000131), wk =   0.0277778
        k(   67) = (   0.4166666  -0.3382993  -0.0000178), wk =   0.0277778
        k(   68) = (  -0.4999999   0.2886750   0.0000270), wk =   0.0138889
        k(   69) = (  -0.4999999   0.3864118   0.0000223), wk =   0.0277778
        k(   70) = (  -0.4999999   0.4841486   0.0000176), wk =   0.0277778
        k(   71) = (  -0.4999999   0.5818855   0.0000129), wk =   0.0277778
        k(   72) = (  -0.4999999   0.6796223   0.0000083), wk =   0.0277778
        k(   73) = (  -0.4999998   0.7773591   0.0000036), wk =   0.0277778
        k(   74) = (  -0.5000001  -0.2977458   0.0000551), wk =   0.0138889

                       cryst. coord.
        k(    1) = (   0.0000000   0.0000000   0.0000000), wk =   0.0138889
        k(    2) = (   0.0000000   0.0833333   0.0000000), wk =   0.0277778
        k(    3) = (   0.0000000   0.1666667   0.0000000), wk =   0.0277778
        k(    4) = (   0.0000000   0.2500000  -0.0000000), wk =   0.0277778
        k(    5) = (   0.0000000   0.3333333   0.0000000), wk =   0.0277778
        k(    6) = (   0.0000000   0.4166667  -0.0000000), wk =   0.0277778
        k(    7) = (   0.0000000  -0.5000000   0.0000000), wk =   0.0138889
        k(    8) = (   0.0833333   0.0000000   0.0000000), wk =   0.0277778
        k(    9) = (   0.0833333   0.0833333   0.0000000), wk =   0.0277778
        k(   10) = (   0.0833333   0.1666667   0.0000000), wk =   0.0277778
        k(   11) = (   0.0833333   0.2500000   0.0000000), wk =   0.0277778
        k(   12) = (   0.0833333   0.3333333   0.0000000), wk =   0.0277778
        k(   13) = (   0.0833333   0.4166667   0.0000000), wk =   0.0277778
        k(   14) = (   0.0833333  -0.5000000   0.0000000), wk =   0.0277778
        k(   15) = (   0.0833333  -0.4166667   0.0000000), wk =   0.0277778
        k(   16) = (   0.0833333  -0.3333333   0.0000000), wk =   0.0277778
        k(   17) = (   0.0833333  -0.2500000   0.0000000), wk =   0.0277778
        k(   18) = (   0.0833333  -0.1666667   0.0000000), wk =   0.0277778
        k(   19) = (   0.0833333  -0.0833333   0.0000000), wk =   0.0277778
        k(   20) = (   0.1666667   0.0000000   0.0000000), wk =   0.0277778
        k(   21) = (   0.1666667   0.0833333   0.0000000), wk =   0.0277778
        k(   22) = (   0.1666667   0.1666667   0.0000000), wk =   0.0277778
        k(   23) = (   0.1666667   0.2500000   0.0000000), wk =   0.0277778
        k(   24) = (   0.1666667   0.3333333   0.0000000), wk =   0.0277778
        k(   25) = (   0.1666667   0.4166667   0.0000000), wk =   0.0277778
        k(   26) = (   0.1666667  -0.5000000   0.0000000), wk =   0.0277778
        k(   27) = (   0.1666667  -0.4166667   0.0000000), wk =   0.0277778
        k(   28) = (   0.1666667  -0.3333333   0.0000000), wk =   0.0277778
        k(   29) = (   0.1666667  -0.2500000  -0.0000000), wk =   0.0277778
        k(   30) = (   0.1666667  -0.1666667   0.0000000), wk =   0.0277778
        k(   31) = (   0.1666667  -0.0833333   0.0000000), wk =   0.0277778
        k(   32) = (   0.2500000   0.0000000   0.0000000), wk =   0.0277778
        k(   33) = (   0.2500000   0.0833333   0.0000000), wk =   0.0277778
        k(   34) = (   0.2500000   0.1666667   0.0000000), wk =   0.0277778
        k(   35) = (   0.2500000   0.2500000  -0.0000000), wk =   0.0277778
        k(   36) = (   0.2500000   0.3333333   0.0000000), wk =   0.0277778
        k(   37) = (   0.2500000   0.4166667   0.0000000), wk =   0.0277778
        k(   38) = (   0.2500000  -0.5000000   0.0000000), wk =   0.0277778
        k(   39) = (   0.2500000  -0.4166667   0.0000000), wk =   0.0277778
        k(   40) = (   0.2500000  -0.3333333   0.0000000), wk =   0.0277778
        k(   41) = (   0.2500000  -0.2500000  -0.0000000), wk =   0.0277778
        k(   42) = (   0.2500000  -0.1666667   0.0000000), wk =   0.0277778
        k(   43) = (   0.2500000  -0.0833333   0.0000000), wk =   0.0277778
        k(   44) = (   0.3333333   0.0000000   0.0000000), wk =   0.0277778
        k(   45) = (   0.3333333   0.0833333   0.0000000), wk =   0.0277778
        k(   46) = (   0.3333333   0.1666667   0.0000000), wk =   0.0277778
        k(   47) = (   0.3333333   0.2500000   0.0000000), wk =   0.0277778
        k(   48) = (   0.3333333   0.3333333   0.0000000), wk =   0.0277778
        k(   49) = (   0.3333333   0.4166667   0.0000000), wk =   0.0277778
        k(   50) = (   0.3333333  -0.5000000  -0.0000000), wk =   0.0277778
        k(   51) = (   0.3333333  -0.4166667  -0.0000000), wk =   0.0277778
        k(   52) = (   0.3333333  -0.3333333   0.0000000), wk =   0.0277778
        k(   53) = (   0.3333333  -0.2500000   0.0000000), wk =   0.0277778
        k(   54) = (   0.3333333  -0.1666667   0.0000000), wk =   0.0277778
        k(   55) = (   0.3333333  -0.0833333   0.0000000), wk =   0.0277778
        k(   56) = (   0.4166667   0.0000000   0.0000000), wk =   0.0277778
        k(   57) = (   0.4166667   0.0833333   0.0000000), wk =   0.0277778
        k(   58) = (   0.4166667   0.1666667   0.0000000), wk =   0.0277778
        k(   59) = (   0.4166667   0.2500000   0.0000000), wk =   0.0277778
        k(   60) = (   0.4166667   0.3333333   0.0000000), wk =   0.0277778
        k(   61) = (   0.4166667   0.4166667   0.0000000), wk =   0.0277778
        k(   62) = (   0.4166667  -0.5000000   0.0000000), wk =   0.0277778
        k(   63) = (   0.4166667  -0.4166667   0.0000000), wk =   0.0277778
        k(   64) = (   0.4166667  -0.3333333   0.0000000), wk =   0.0277778
        k(   65) = (   0.4166667  -0.2500000   0.0000000), wk =   0.0277778
        k(   66) = (   0.4166667  -0.1666667   0.0000000), wk =   0.0277778
        k(   67) = (   0.4166667  -0.0833333   0.0000000), wk =   0.0277778
        k(   68) = (  -0.5000000   0.0000000  -0.0000000), wk =   0.0138889
        k(   69) = (  -0.5000000   0.0833333  -0.0000000), wk =   0.0277778
        k(   70) = (  -0.5000000   0.1666667  -0.0000000), wk =   0.0277778
        k(   71) = (  -0.5000000   0.2500000  -0.0000000), wk =   0.0277778
        k(   72) = (  -0.5000000   0.3333333  -0.0000000), wk =   0.0277778
        k(   73) = (  -0.5000000   0.4166667  -0.0000000), wk =   0.0277778
        k(   74) = (  -0.5000000  -0.5000000   0.0000000), wk =   0.0138889

     Dense  grid:    88797 G-vectors     FFT dimensions: (  30,  30, 240)

     Smooth grid:    31413 G-vectors     FFT dimensions: (  24,  24, 162)

     Dynamical RAM for                 wfc:       1.14 MB

     Dynamical RAM for     wfc (w. buffer):      85.19 MB

     Dynamical RAM for           str. fact:       2.71 MB

     Dynamical RAM for           local pot:       0.00 MB

     Dynamical RAM for          nlocal pot:       2.87 MB

     Dynamical RAM for                qrad:       0.68 MB

     Dynamical RAM for          rho,v,vnew:       9.01 MB

     Dynamical RAM for               rhoin:       3.00 MB

     Dynamical RAM for            rho*nmix:      21.68 MB

     Dynamical RAM for           G-vectors:       5.32 MB

     Dynamical RAM for          h,s,v(r/c):       0.26 MB

     Dynamical RAM for          <psi|beta>:       0.01 MB

     Dynamical RAM for                 psi:       4.54 MB

     Dynamical RAM for                hpsi:       4.54 MB

     Dynamical RAM for                spsi:       4.54 MB

     Dynamical RAM for      wfcinit/wfcrot:       2.88 MB

     Dynamical RAM for           addusdens:      63.68 MB

     Dynamical RAM for          addusforce:      80.62 MB

     Dynamical RAM for         addusstress:      67.75 MB

     Estimated static dynamical RAM per process >     142.76 MB

     Estimated max dynamical RAM per process >     223.39 MB

     Check: negative core charge=   -0.000005

     Initial potential from superposition of free atoms

     starting charge   29.99983, renormalised to   30.00000

     negative rho (up, down):  4.922E-04 0.000E+00
     Starting wfcs are   24 randomized atomic wfcs
     Checking if some PAW data can be deallocated... 

     total cpu time spent up to now is       10.2 secs

     Self-consistent Calculation

     iteration #  1     ecut=    45.00 Ry     beta= 0.70
     Davidson diagonalization with overlap
     ethr =  1.00E-02,  avg # of iterations =  2.7

     negative rho (up, down):  5.775E-04 0.000E+00

     total cpu time spent up to now is       18.7 secs

     total energy              =    -189.87848581 Ry
     Harris-Foulkes estimate   =    -190.05626291 Ry
     estimated scf accuracy    <       0.32494493 Ry

     iteration #  2     ecut=    45.00 Ry     beta= 0.70
     Davidson diagonalization with overlap
     ethr =  1.08E-03,  avg # of iterations =  2.4

     negative rho (up, down):  6.061E-04 0.000E+00

     total cpu time spent up to now is       26.4 secs

     total energy              =    -189.90712527 Ry
     Harris-Foulkes estimate   =    -189.96698208 Ry
     estimated scf accuracy    <       0.09723872 Ry

     iteration #  3     ecut=    45.00 Ry     beta= 0.70
     Davidson diagonalization with overlap
     ethr =  3.24E-04,  avg # of iterations =  4.9

     negative rho (up, down):  6.130E-04 0.000E+00

     total cpu time spent up to now is       35.2 secs

     total energy              =    -189.92952123 Ry
     Harris-Foulkes estimate   =    -189.94914495 Ry
     estimated scf accuracy    <       0.03812737 Ry

     iteration #  4     ecut=    45.00 Ry     beta= 0.70
     Davidson diagonalization with overlap
     ethr =  1.27E-04,  avg # of iterations =  4.3

     negative rho (up, down):  6.143E-04 0.000E+00

     total cpu time spent up to now is       43.1 secs

     total energy              =    -189.93778178 Ry
     Harris-Foulkes estimate   =    -189.94229305 Ry
     estimated scf accuracy    <       0.01041864 Ry

     iteration #  5     ecut=    45.00 Ry     beta= 0.70
     Davidson diagonalization with overlap
     ethr =  3.47E-05,  avg # of iterations =  3.3

     negative rho (up, down):  6.180E-04 0.000E+00

     total cpu time spent up to now is       50.2 secs

     total energy              =    -189.93976784 Ry
     Harris-Foulkes estimate   =    -189.93978750 Ry
     estimated scf accuracy    <       0.00006008 Ry

     iteration #  6     ecut=    45.00 Ry     beta= 0.70
     Davidson diagonalization with overlap
     c_bands:  1 eigenvalues not converged
     ethr =  2.00E-07,  avg # of iterations =  5.1

     negative rho (up, down):  6.192E-04 0.000E+00

     total cpu time spent up to now is       60.3 secs

     total energy              =    -189.93982380 Ry
     Harris-Foulkes estimate   =    -189.93983480 Ry
     estimated scf accuracy    <       0.00002704 Ry

     iteration #  7     ecut=    45.00 Ry     beta= 0.70
     Davidson diagonalization with overlap
     ethr =  9.01E-08,  avg # of iterations =  2.0

     negative rho (up, down):  6.197E-04 0.000E+00

     total cpu time spent up to now is       66.9 secs

     total energy              =    -189.93982484 Ry
     Harris-Foulkes estimate   =    -189.93982635 Ry
     estimated scf accuracy    <       0.00000326 Ry

     iteration #  8     ecut=    45.00 Ry     beta= 0.70
     Davidson diagonalization with overlap
     ethr =  1.09E-08,  avg # of iterations =  3.1

     negative rho (up, down):  6.198E-04 0.000E+00

     total cpu time spent up to now is       74.9 secs

     End of self-consistent calculation

          k = 0.0000 0.0000 0.0000 (  3903 PWs)   bands (ev):

   -27.2855 -27.2375 -21.4696 -18.0457 -12.1215  -9.3975  -6.2246  -5.8413
    -5.7544  -5.5755  -5.4932  -3.3087  -3.2208  -2.0432  -1.9723   1.9596
     4.3021   4.4984   4.7735

     occupation numbers 
     1.0000   1.0000   1.0000   1.0000   1.0000   1.0000   1.0000   1.0000
     1.0000   1.0000   1.0000   1.0000   1.0000   1.0000   1.0000   0.0000
     0.0000   0.0000   0.0000

          k = 0.0000 0.0977-0.0000 (  3875 PWs)   bands (ev):

   -27.2216 -27.1767 -21.3211 -17.9193 -12.0265  -9.3709  -6.5883  -6.0758
    -6.0382  -5.7460  -5.6783  -3.6644  -3.4836  -2.5039  -2.2267   2.2887
     4.2154   4.8873   5.1522

     occupation numbers 
     1.0000   1.0000   1.0000   1.0000   1.0000   1.0000   1.0000   1.0000
     1.0000   1.0000   1.0000   1.0000   1.0000   1.0000   1.0000   0.0000
     0.0000   0.0000   0.0000

          k = 0.0000 0.1955-0.0000 (  3886 PWs)   bands (ev):

   -27.0436 -27.0068 -20.8766 -17.5417 -11.7604  -9.3339  -7.7355  -7.1685
    -6.5678  -6.1782  -5.9920  -4.3538  -3.8450  -3.6251  -2.6736   2.7579
     4.0172   5.6031   5.9201

     occupation numbers 
     1.0000   1.0000   1.0000   1.0000   1.0000   1.0000   1.0000   1.0000
     1.0000   1.0000   1.0000   1.0000   1.0000   1.0000   1.0000   0.0000
     0.0000   0.0000   0.0000

          k = 0.0000 0.2932-0.0000 (  3920 PWs)   bands (ev):

   -26.7910 -26.7651 -20.1390 -16.9188 -11.4271  -9.8271  -9.1620  -8.3819
    -7.2266  -6.8145  -6.4255  -4.9974  -4.6116  -4.1744  -3.1415   2.7221
     4.1553   5.6474   6.8891

     occupation numbers 
     1.0000   1.0000   1.0000   1.0000   1.0000   1.0000   1.0000   1.0000
     1.0000   1.0000   1.0000   1.0000   1.0000   1.0000   1.0000   0.0000
     0.0000   0.0000   0.0000

          k = 0.0000 0.3909-0.0000 (  3955 PWs)   bands (ev):

   -26.5265 -26.5113 -19.1189 -16.0644 -12.1306 -10.8012 -10.1564  -8.8514
    -7.8138  -7.4064  -6.8496  -5.9250  -4.9621  -4.4231  -3.5026   2.5008
     4.3460   5.3970   7.1014

     occupation numbers 
     1.0000   1.0000   1.0000   1.0000   1.0000   1.0000   1.0000   1.0000
     1.0000   1.0000   1.0000   1.0000   1.0000   1.0000   1.0000   0.0000
     0.0000   0.0000   0.0000

          k = 0.0000 0.4887-0.0000 (  3951 PWs)   bands (ev):

   -26.3241 -26.3171 -17.8626 -15.0608 -13.9184 -12.0522 -10.0336  -9.0703
    -8.2048  -7.7328  -7.1496  -6.5759  -5.1699  -4.5793  -3.7230   2.4409
     4.2461   4.8707   7.3851

     occupation numbers 
     1.0000   1.0000   1.0000   1.0000   1.0000   1.0000   1.0000   1.0000
     1.0000   1.0000   1.0000   1.0000   1.0000   1.0000   1.0000   0.0000
     0.0000   0.0000   0.0000

          k =-0.0000-0.5864 0.0000 (  3942 PWs)   bands (ev):

   -26.2476 -26.2446 -16.8725 -15.3430 -13.8774 -13.1916  -9.7748  -9.2631
    -8.3408  -7.8122  -7.2568  -6.8060  -5.2514  -4.6329  -3.7968   2.4811
     3.9922   4.7632   7.8602

     occupation numbers 
     1.0000   1.0000   1.0000   1.0000   1.0000   1.0000   1.0000   1.0000
     1.0000   1.0000   1.0000   1.0000   1.0000   1.0000   1.0000   0.0000
     0.0000   0.0000   0.0000

          k = 0.0833-0.0481-0.0000 (  3913 PWs)   bands (ev):

   -27.2248 -27.1798 -21.3262 -17.9239 -12.0309  -9.3732  -6.6315  -6.1289
    -5.9402  -5.8369  -5.5950  -3.7473  -3.3926  -2.5744  -2.1473   2.3170
     4.2495   5.0113   5.1402

     occupation numbers 
     1.0000   1.0000   1.0000   1.0000   1.0000   1.0000   1.0000   1.0000
     1.0000   1.0000   1.0000   1.0000   1.0000   1.0000   1.0000   0.0000
     0.0000   0.0000   0.0000

          k = 0.0833 0.0496-0.0000 (  3890 PWs)   bands (ev):

   -27.2232 -27.1781 -21.3236 -17.9215 -12.0287  -9.3720  -6.6064  -6.1039
    -5.9946  -5.7863  -5.6375  -3.7039  -3.4410  -2.5352  -2.1911   2.3010
     4.2320   4.9181   5.1718

     occupation numbers 
     1.0000   1.0000   1.0000   1.0000   1.0000   1.0000   1.0000   1.0000
     1.0000   1.0000   1.0000   1.0000   1.0000   1.0000   1.0000   0.0000
     0.0000   0.0000   0.0000

          k = 0.0833 0.1474-0.0000 (  3881 PWs)   bands (ev):

   -27.1007 -27.0613 -21.0246 -17.6672 -11.8456  -9.3361  -7.3225  -6.7568
    -6.5271  -6.1867  -5.7338  -4.1110  -3.9181  -3.1331  -2.6391   2.7527
     4.1872   5.2921   5.7575

     occupation numbers 
     1.0000   1.0000   1.0000   1.0000   1.0000   1.0000   1.0000   1.0000
     1.0000   1.0000   1.0000   1.0000   1.0000   1.0000   1.0000   0.0000
     0.0000   0.0000   0.0000

          k = 0.0833 0.2451-0.0000 (  3909 PWs)   bands (ev):

   -26.8841 -26.8543 -20.4308 -17.1645 -11.5305  -9.4075  -8.6635  -7.8819
    -7.3052  -6.7701  -6.0802  -4.7453  -4.4283  -3.8779  -3.2163   3.2081
     4.2202   5.9001   6.2492

     occupation numbers 
     1.0000   1.0000   1.0000   1.0000   1.0000   1.0000   1.0000   1.0000
     1.0000   1.0000   1.0000   1.0000   1.0000   1.0000   1.0000   0.0000
     0.0000   0.0000   0.0000

          k = 0.0833 0.3428-0.0000 (  3937 PWs)   bands (ev):

   -26.6245 -26.6053 -19.5481 -16.4219 -11.4553 -10.4660  -9.7176  -8.6975
    -8.0041  -7.3785  -6.6426  -5.5619  -4.8239  -4.3615  -3.6262   3.1620
     4.5486   5.9096   6.9619

     occupation numbers 
     1.0000   1.0000   1.0000   1.0000   1.0000   1.0000   1.0000   1.0000
     1.0000   1.0000   1.0000   1.0000   1.0000   1.0000   1.0000   0.0000
     0.0000   0.0000   0.0000

          k = 0.0833 0.4406-0.0000 (  3941 PWs)   bands (ev):

   -26.3906 -26.3805 -18.3983 -15.4662 -13.0007 -11.3376 -10.1405  -9.0162
    -8.4716  -7.7570  -7.2004  -6.2612  -5.1739  -4.5532  -3.9013   3.0858
     4.6799   5.4834   7.2974

     occupation numbers 
     1.0000   1.0000   1.0000   1.0000   1.0000   1.0000   1.0000   1.0000
     1.0000   1.0000   1.0000   1.0000   1.0000   1.0000   1.0000   0.0000
     0.0000   0.0000   0.0000

          k = 0.0833-0.6345 0.0000 (  3943 PWs)   bands (ev):

   -26.2517 -26.2477 -17.1156 -14.9295 -14.1010 -12.7161  -9.8279  -9.2542
    -8.7464  -7.8457  -7.5637  -6.6546  -5.3660  -4.6399  -4.0479   3.2023
     4.2569   5.3392   7.6171

     occupation numbers 
     1.0000   1.0000   1.0000   1.0000   1.0000   1.0000   1.0000   1.0000
     1.0000   1.0000   1.0000   1.0000   1.0000   1.0000   1.0000   0.0000
     0.0000   0.0000   0.0000

          k = 0.0833-0.5368 0.0000 (  3943 PWs)   bands (ev):

   -26.2537 -26.2497 -17.1362 -14.9132 -14.1147 -12.6867  -9.8395  -9.2355
    -8.7687  -7.8134  -7.6027  -6.6479  -5.3664  -4.6400  -4.0548   3.2120
     4.2664   5.3481   7.6128

     occupation numbers 
     1.0000   1.0000   1.0000   1.0000   1.0000   1.0000   1.0000   1.0000
     1.0000   1.0000   1.0000   1.0000   1.0000   1.0000   1.0000   0.0000
     0.0000   0.0000   0.0000

          k = 0.0833-0.4391 0.0000 (  3950 PWs)   bands (ev):

   -26.3960 -26.3858 -18.4204 -15.4860 -12.9655 -11.3051 -10.1446  -9.0026
    -8.5183  -7.7180  -7.2572  -6.2429  -5.1727  -4.5562  -3.9196   3.1146
     4.7051   5.5045   7.3072

     occupation numbers 
     1.0000   1.0000   1.0000   1.0000   1.0000   1.0000   1.0000   1.0000
     1.0000   1.0000   1.0000   1.0000   1.0000   1.0000   1.0000   0.0000
     0.0000   0.0000   0.0000

          k = 0.0833-0.3413 0.0000 (  3934 PWs)   bands (ev):

   -26.6315 -26.6122 -19.5658 -16.4379 -11.4469 -10.4434  -9.6852  -8.6911
    -8.0475  -7.3621  -6.6937  -5.5406  -4.8099  -4.3727  -3.6518   3.2048
     4.5857   5.9281   7.0088

     occupation numbers 
     1.0000   1.0000   1.0000   1.0000   1.0000   1.0000   1.0000   1.0000
     1.0000   1.0000   1.0000   1.0000   1.0000   1.0000   1.0000   0.0000
     0.0000   0.0000   0.0000

          k = 0.0833-0.2436 0.0000 (  3909 PWs)   bands (ev):

   -26.8907 -26.8607 -20.4435 -17.1760 -11.5401  -9.4042  -8.6288  -7.8781
    -7.3220  -6.7684  -6.1179  -4.7325  -4.4204  -3.8693  -3.2443   3.2508
     4.2814   5.8811   6.3555

     occupation numbers 
     1.0000   1.0000   1.0000   1.0000   1.0000   1.0000   1.0000   1.0000
     1.0000   1.0000   1.0000   1.0000   1.0000   1.0000   1.0000   0.0000
     0.0000   0.0000   0.0000

          k = 0.0833-0.1458 0.0000 (  3889 PWs)   bands (ev):

   -27.1053 -27.0658 -21.0322 -17.6742 -11.8522  -9.3389  -7.3365  -6.7796
    -6.5032  -6.1706  -5.7472  -4.1248  -3.9051  -3.1308  -2.6312   2.7925
     4.2532   5.3289   5.7490

     occupation numbers 
     1.0000   1.0000   1.0000   1.0000   1.0000   1.0000   1.0000   1.0000
     1.0000   1.0000   1.0000   1.0000   1.0000   1.0000   1.0000   0.0000
     0.0000   0.0000   0.0000

          k = 0.1667-0.0962-0.0000 (  3898 PWs)   bands (ev):

   -27.0556 -27.0186 -20.8969 -17.5602 -11.7785  -9.3429  -7.8837  -7.2268
    -6.4123  -6.2412  -5.8726  -4.4238  -3.7306  -3.6897  -2.5564   2.8610
     4.0867   5.8490   5.9627

     occupation numbers 
     1.0000   1.0000   1.0000   1.0000   1.0000   1.0000   1.0000   1.0000
     1.0000   1.0000   1.0000   1.0000   1.0000   1.0000   1.0000   0.0000
     0.0000   0.0000   0.0000

          k = 0.1667 0.0015-0.0000 (  3898 PWs)   bands (ev):

   -27.1096 -27.0700 -21.0396 -17.6809 -11.8583  -9.3411  -7.3335  -6.7927
    -6.4911  -6.1539  -5.7722  -4.1165  -3.9139  -3.1183  -2.6377   2.8257
     4.3031   5.3868   5.7354

     occupation numbers 
     1.0000   1.0000   1.0000   1.0000   1.0000   1.0000   1.0000   1.0000
     1.0000   1.0000   1.0000   1.0000   1.0000   1.0000   1.0000   0.0000
     0.0000   0.0000   0.0000

          k = 0.1667 0.0992-0.0000 (  3895 PWs)   bands (ev):

   -27.0494 -27.0125 -20.8865 -17.5507 -11.7691  -9.3380  -7.8047  -7.1967
    -6.4930  -6.2093  -5.9342  -4.3869  -3.7918  -3.6544  -2.6187   2.8088
     4.0510   5.6895   5.9753

     occupation numbers 
     1.0000   1.0000   1.0000   1.0000   1.0000   1.0000   1.0000   1.0000
     1.0000   1.0000   1.0000   1.0000   1.0000   1.0000   1.0000   0.0000
     0.0000   0.0000   0.0000

          k = 0.1667 0.1970-0.0000 (  3905 PWs)   bands (ev):

   -26.8884 -26.8585 -20.4384 -17.1715 -11.5381  -9.4169  -8.7331  -7.9047
    -7.2410  -6.7504  -6.0495  -4.7722  -4.4147  -3.8786  -3.1589   3.2671
     4.2093   5.9828   6.3215

     occupation numbers 
     1.0000   1.0000   1.0000   1.0000   1.0000   1.0000   1.0000   1.0000
     1.0000   1.0000   1.0000   1.0000   1.0000   1.0000   1.0000   0.0000
     0.0000   0.0000   0.0000

          k = 0.1667 0.2947-0.0000 (  3921 PWs)   bands (ev):

   -26.6641 -26.6434 -19.6988 -16.5483 -11.3307  -9.8800  -9.7723  -8.4841
    -8.2449  -7.6648  -6.4323  -5.5161  -4.6615  -4.2124  -3.9489   4.1656
     4.4106   6.3707   7.3078

     occupation numbers 
     1.0000   1.0000   1.0000   1.0000   1.0000   1.0000   1.0000   1.0000
     1.0000   1.0000   1.0000   1.0000   1.0000   1.0000   1.0000   0.0000
     0.0000   0.0000   0.0000

          k = 0.1667 0.3925-0.0000 (  3933 PWs)   bands (ev):

   -26.4334 -26.4214 -18.6805 -15.6950 -12.0705 -10.9214 -10.0900  -9.1702
    -8.8318  -8.2773  -7.0490  -6.0886  -5.0612  -4.5914  -4.3139   4.2478
     5.0837   6.8673   7.0241

     occupation numbers 
     1.0000   1.0000   1.0000   1.0000   1.0000   1.0000   1.0000   1.0000
     1.0000   1.0000   1.0000   1.0000   1.0000   1.0000   1.0000   0.0000
     0.0000   0.0000   0.0000

          k = 0.1667-0.6826 0.0000 (  3929 PWs)   bands (ev):

   -26.2608 -26.2553 -17.4366 -14.6928 -13.6609 -12.0347 -10.0070  -9.7091
    -9.1496  -8.3450  -7.6499  -6.4141  -5.5148  -4.7008  -4.5187   4.2837
     5.2420   6.7172   7.0448

     occupation numbers 
     1.0000   1.0000   1.0000   1.0000   1.0000   1.0000   1.0000   1.0000
     1.0000   1.0000   1.0000   1.0000   1.0000   1.0000   1.0000   0.0000
     0.0000   0.0000   0.0000

          k = 0.1667-0.5849 0.0000 (  3925 PWs)   bands (ev):

   -26.1988 -26.1964 -16.4989 -14.9574 -13.5135 -13.0703 -10.2562  -9.5236
    -9.2585  -8.3533  -7.9300  -6.5099  -5.6868  -4.6826  -4.6470   4.4094
     5.0012   6.8062   7.0600

     occupation numbers 
     1.0000   1.0000   1.0000   1.0000   1.0000   1.0000   1.0000   1.0000
     1.0000   1.0000   1.0000   1.0000   1.0000   1.0000   1.0000   0.0000
     0.0000   0.0000   0.0000

          k = 0.1667-0.4872 0.0000 (  3931 PWs)   bands (ev):

   -26.2683 -26.2627 -17.4837 -14.7307 -13.6045 -11.9676 -10.0409  -9.7160
    -9.1565  -8.3272  -7.6891  -6.3856  -5.5152  -4.6810  -4.5546   4.2938
     5.2674   6.7628   7.0238

     occupation numbers 
     1.0000   1.0000   1.0000   1.0000   1.0000   1.0000   1.0000   1.0000
     1.0000   1.0000   1.0000   1.0000   1.0000   1.0000   1.0000   0.0000
     0.0000   0.0000   0.0000

          k = 0.1667-0.3894 0.0000 (  3930 PWs)   bands (ev):

   -26.4459 -26.4336 -18.7210 -15.7325 -12.0153 -10.8793 -10.0818  -9.1817
    -8.8751  -8.2620  -7.0914  -6.0546  -5.0394  -4.5881  -4.3496   4.2733
     5.1281   6.8630   7.0942

     occupation numbers 
     1.0000   1.0000   1.0000   1.0000   1.0000   1.0000   1.0000   1.0000
     1.0000   1.0000   1.0000   1.0000   1.0000   1.0000   1.0000   0.0000
     0.0000   0.0000   0.0000

          k = 0.1667-0.2917 0.0000 (  3905 PWs)   bands (ev):

   -26.6777 -26.6567 -19.7295 -16.5766 -11.3470  -9.8726  -9.7310  -8.5100
    -8.2248  -7.6639  -6.4664  -5.4949  -4.6362  -4.2075  -3.9646   4.2060
     4.4936   6.4206   7.4032

     occupation numbers 
     1.0000   1.0000   1.0000   1.0000   1.0000   1.0000   1.0000   1.0000
     1.0000   1.0000   1.0000   1.0000   1.0000   1.0000   1.0000   0.0000
     0.0000   0.0000   0.0000

          k = 0.1667-0.1940-0.0000 (  3894 PWs)   bands (ev):

   -26.8995 -26.8695 -20.4589 -17.1904 -11.5560  -9.4241  -8.7775  -7.9194
    -7.1905  -6.7318  -6.0515  -4.7883  -4.3934  -3.8712  -3.1236   3.3603
     4.2625   6.0523   6.5017

     occupation numbers 
     1.0000   1.0000   1.0000   1.0000   1.0000   1.0000   1.0000   1.0000
     1.0000   1.0000   1.0000   1.0000   1.0000   1.0000   1.0000   0.0000
     0.0000   0.0000   0.0000

          k = 0.2500-0.1443-0.0000 (  3901 PWs)   bands (ev):

   -26.8158 -26.7896 -20.1851 -16.9617 -11.4763  -9.9340  -9.2670  -8.4443
    -7.0090  -6.8455  -6.2583  -5.0788  -4.6242  -4.0437  -2.9948   2.9825
     4.1832   5.9541   6.9075

     occupation numbers 
     1.0000   1.0000   1.0000   1.0000   1.0000   1.0000   1.0000   1.0000
     1.0000   1.0000   1.0000   1.0000   1.0000   1.0000   1.0000   0.0000
     0.0000   0.0000   0.0000

          k = 0.2500-0.0466-0.0000 (  3890 PWs)   bands (ev):

   -26.9057 -26.8755 -20.4712 -17.2013 -11.5647  -9.4191  -8.7404  -7.9082
    -7.2102  -6.7304  -6.0941  -4.7727  -4.3832  -3.8697  -3.1519   3.3939
     4.3151   6.0623   6.5553

     occupation numbers 
     1.0000   1.0000   1.0000   1.0000   1.0000   1.0000   1.0000   1.0000
     1.0000   1.0000   1.0000   1.0000   1.0000   1.0000   1.0000   0.0000
     0.0000   0.0000   0.0000

          k = 0.2500 0.0511-0.0000 (  3911 PWs)   bands (ev):

   -26.9011 -26.8709 -20.4633 -17.1940 -11.5564  -9.4087  -8.6601  -7.8897
    -7.2790  -6.7462  -6.1303  -4.7433  -4.3974  -3.8679  -3.2155   3.3430
     4.3239   5.9701   6.4934

     occupation numbers 
     1.0000   1.0000   1.0000   1.0000   1.0000   1.0000   1.0000   1.0000
     1.0000   1.0000   1.0000   1.0000   1.0000   1.0000   1.0000   0.0000
     0.0000   0.0000   0.0000

          k = 0.2500 0.1489-0.0000 (  3913 PWs)   bands (ev):

   -26.8029 -26.7769 -20.1616 -16.9397 -11.4505  -9.8771  -9.2148  -8.4127
    -7.1200  -6.8299  -6.3427  -5.0375  -4.6171  -4.1115  -3.0705   2.8536
     4.1732   5.7930   6.8986

     occupation numbers 
     1.0000   1.0000   1.0000   1.0000   1.0000   1.0000   1.0000   1.0000
     1.0000   1.0000   1.0000   1.0000   1.0000   1.0000   1.0000   0.0000
     0.0000   0.0000   0.0000

          k = 0.2500 0.2466-0.0000 (  3921 PWs)   bands (ev):

   -26.6349 -26.6157 -19.5688 -16.4417 -11.5021 -10.5255  -9.7532  -8.7259
    -7.8942  -7.3479  -6.5783  -5.5855  -4.8345  -4.3152  -3.5520   3.2986
     4.5116   6.0854   7.0125

     occupation numbers 
     1.0000   1.0000   1.0000   1.0000   1.0000   1.0000   1.0000   1.0000
     1.0000   1.0000   1.0000   1.0000   1.0000   1.0000   1.0000   0.0000
     0.0000   0.0000   0.0000

          k = 0.2500 0.3443-0.0000 (  3927 PWs)   bands (ev):

   -26.4396 -26.4276 -18.6941 -15.7094 -12.1244 -10.9454 -10.0893  -9.1506
    -8.8010  -8.2442  -7.0269  -6.0970  -5.0699  -4.5701  -4.2746   4.3262
     5.0422   6.9189   7.2145

     occupation numbers 
     1.0000   1.0000   1.0000   1.0000   1.0000   1.0000   1.0000   1.0000
     1.0000   1.0000   1.0000   1.0000   1.0000   1.0000   1.0000   0.0000
     0.0000   0.0000   0.0000

          k = 0.2500-0.7308 0.0000 (  3918 PWs)   bands (ev):

   -26.2694 -26.2632 -17.5698 -14.7730 -13.0048 -11.9535 -10.0185  -9.9239
    -9.5704  -8.5135  -7.5983  -6.3512  -5.3602  -5.0747  -4.5576   4.6051
     5.9163   6.6893   8.6501

     occupation numbers 
     1.0000   1.0000   1.0000   1.0000   1.0000   1.0000   1.0000   1.0000
     1.0000   1.0000   1.0000   1.0000   1.0000   1.0000   1.0000   0.0000
     0.0000   0.0000   0.0000

          k = 0.2500-0.6330 0.0000 (  3913 PWs)   bands (ev):

   -26.1725 -26.1701 -16.3655 -14.2435 -13.6480 -12.8179 -10.9139 -10.3083
    -9.1597  -8.5862  -8.1161  -6.2971  -5.7773  -5.3088  -4.6454   4.7214
     5.7058   7.4546   8.2503

     occupation numbers 
     1.0000   1.0000   1.0000   1.0000   1.0000   1.0000   1.0000   1.0000
     1.0000   1.0000   1.0000   1.0000   1.0000   1.0000   1.0000   0.0000
     0.0000   0.0000   0.0000

          k = 0.2500-0.5353 0.0000 (  3905 PWs)   bands (ev):

   -26.1779 -26.1754 -16.4275 -14.1812 -13.7285 -12.7240 -10.9220 -10.3210
    -9.1573  -8.5818  -8.1305  -6.2743  -5.7787  -5.3104  -4.6506   4.7244
     5.6990   7.4602   8.2682

     occupation numbers 
     1.0000   1.0000   1.0000   1.0000   1.0000   1.0000   1.0000   1.0000
     1.0000   1.0000   1.0000   1.0000   1.0000   1.0000   1.0000   0.0000
     0.0000   0.0000   0.0000

          k = 0.2500-0.4375 0.0000 (  3923 PWs)   bands (ev):

   -26.2839 -26.2776 -17.6386 -14.8436 -12.9337 -11.8910 -10.0384  -9.9395
    -9.5510  -8.5084  -7.6220  -6.3174  -5.3390  -5.0743  -4.5702   4.6125
     5.9035   6.7356   8.7196

     occupation numbers 
     1.0000   1.0000   1.0000   1.0000   1.0000   1.0000   1.0000   1.0000
     1.0000   1.0000   1.0000   1.0000   1.0000   1.0000   1.0000   0.0000
     0.0000   0.0000   0.0000

          k = 0.2500-0.3398-0.0000 (  3915 PWs)   bands (ev):

   -26.4587 -26.4464 -18.7488 -15.7623 -12.1252 -10.9331 -10.0794  -9.1337
    -8.8178  -8.1929  -7.0473  -6.0723  -5.0572  -4.5468  -4.2667   4.4044
     5.0573   6.9684   7.4732

     occupation numbers 
     1.0000   1.0000   1.0000   1.0000   1.0000   1.0000   1.0000   1.0000
     1.0000   1.0000   1.0000   1.0000   1.0000   1.0000   1.0000   0.0000
     0.0000   0.0000   0.0000

          k = 0.2500-0.2421-0.0000 (  3919 PWs)   bands (ev):

   -26.6532 -26.6337 -19.6080 -16.4787 -11.5426 -10.5655  -9.7617  -8.7468
    -7.8193  -7.3088  -6.5573  -5.5902  -4.8315  -4.2769  -3.4997   3.4691
     4.5012   6.2921   7.1185

     occupation numbers 
     1.0000   1.0000   1.0000   1.0000   1.0000   1.0000   1.0000   1.0000
     1.0000   1.0000   1.0000   1.0000   1.0000   1.0000   1.0000   0.0000
     0.0000   0.0000   0.0000

          k = 0.3333-0.1925-0.0000 (  3921 PWs)   bands (ev):

   -26.5649 -26.5493 -19.2034 -16.1476 -12.2600 -10.9104 -10.2054  -8.9019
    -7.5480  -7.4115  -6.6389  -5.9670  -4.9763  -4.2794  -3.3379   2.8675
     4.3828   5.6590   7.3281

     occupation numbers 
     1.0000   1.0000   1.0000   1.0000   1.0000   1.0000   1.0000   1.0000
     1.0000   1.0000   1.0000   1.0000   1.0000   1.0000   1.0000   0.0000
     0.0000   0.0000   0.0000

          k = 0.3333-0.0947-0.0000 (  3909 PWs)   bands (ev):

   -26.6597 -26.6400 -19.6249 -16.4937 -11.5312 -10.5448  -9.7318  -8.7401
    -7.8565  -7.2946  -6.6085  -5.5701  -4.8182  -4.2894  -3.5239   3.5032
     4.5325   6.3066   7.1808

     occupation numbers 
     1.0000   1.0000   1.0000   1.0000   1.0000   1.0000   1.0000   1.0000
     1.0000   1.0000   1.0000   1.0000   1.0000   1.0000   1.0000   0.0000
     0.0000   0.0000   0.0000

          k = 0.3333 0.0030-0.0000 (  3899 PWs)   bands (ev):

   -26.6903 -26.6691 -19.7590 -16.6032 -11.3597  -9.8397  -9.6999  -8.5392
    -8.2129  -7.6618  -6.5045  -5.4722  -4.6101  -4.1994  -3.9896   4.2717
     4.5332   6.4906   7.5698

     occupation numbers 
     1.0000   1.0000   1.0000   1.0000   1.0000   1.0000   1.0000   1.0000
     1.0000   1.0000   1.0000   1.0000   1.0000   1.0000   1.0000   0.0000
     0.0000   0.0000   0.0000

          k = 0.3333 0.1008-0.0000 (  3926 PWs)   bands (ev):

   -26.6484 -26.6289 -19.6034 -16.4727 -11.4823 -10.4821  -9.6909  -8.7130
    -7.9753  -7.3160  -6.6813  -5.5441  -4.8073  -4.3390  -3.6018   3.3755
     4.5799   6.1186   7.1229

     occupation numbers 
     1.0000   1.0000   1.0000   1.0000   1.0000   1.0000   1.0000   1.0000
     1.0000   1.0000   1.0000   1.0000   1.0000   1.0000   1.0000   0.0000
     0.0000   0.0000   0.0000

          k = 0.3333 0.1985-0.0000 (  3942 PWs)   bands (ev):

   -26.5450 -26.5296 -19.1603 -16.1047 -12.1945 -10.8545 -10.1813  -8.8769
    -7.6816  -7.4102  -6.7432  -5.9460  -4.9697  -4.3527  -3.4215   2.6860
     4.3801   5.5116   7.2080

     occupation numbers 
     1.0000   1.0000   1.0000   1.0000   1.0000   1.0000   1.0000   1.0000
     1.0000   1.0000   1.0000   1.0000   1.0000   1.0000   1.0000   0.0000
     0.0000   0.0000   0.0000

          k = 0.3333 0.2962-0.0000 (  3927 PWs)   bands (ev):

   -26.4076 -26.3974 -18.4396 -15.5119 -13.0637 -11.3980 -10.1575  -9.0290
    -8.3441  -7.7395  -7.1070  -6.2769  -5.1700  -4.5035  -3.8215   3.2652
     4.6359   5.6740   7.4124

     occupation numbers 
     1.0000   1.0000   1.0000   1.0000   1.0000   1.0000   1.0000   1.0000
     1.0000   1.0000   1.0000   1.0000   1.0000   1.0000   1.0000   0.0000
     0.0000   0.0000   0.0000

          k = 0.3333-0.7789 0.0000 (  3931 PWs)   bands (ev):

   -26.2735 -26.2680 -17.4751 -14.7618 -13.6781 -12.0739  -9.9585  -9.6855
    -9.1215  -8.3143  -7.6172  -6.4270  -5.4998  -4.6769  -4.4719   4.3104
     5.3280   6.8086   7.2158

     occupation numbers 
     1.0000   1.0000   1.0000   1.0000   1.0000   1.0000   1.0000   1.0000
     1.0000   1.0000   1.0000   1.0000   1.0000   1.0000   1.0000   0.0000
     0.0000   0.0000   0.0000

          k = 0.3333-0.6811 0.0000 (  3915 PWs)   bands (ev):

   -26.1790 -26.1766 -16.4011 -14.3402 -13.5644 -12.8380 -10.8973 -10.2592
    -9.1728  -8.5877  -8.1018  -6.3045  -5.7670  -5.2872  -4.6405   4.6926
     5.7453   7.5066   8.3791

     occupation numbers 
     1.0000   1.0000   1.0000   1.0000   1.0000   1.0000   1.0000   1.0000
     1.0000   1.0000   1.0000   1.0000   1.0000   1.0000   1.0000   0.0000
     0.0000   0.0000   0.0000

          k = 0.3333-0.5834 0.0000 (  3893 PWs)   bands (ev):

   -26.1490 -26.1479 -15.8422 -13.9737 -13.9514 -12.8528 -11.0950 -11.0790
    -8.6684  -8.6343  -8.6244  -5.9229  -5.8627  -5.8528  -4.6658   5.1273
     5.1822   8.3607   9.0173

     occupation numbers 
     1.0000   1.0000   1.0000   1.0000   1.0000   1.0000   1.0000   1.0000
     1.0000   1.0000   1.0000   1.0000   1.0000   1.0000   1.0000   0.0000
     0.0000   0.0000   0.0000

          k = 0.3333-0.4857-0.0000 (  3911 PWs)   bands (ev):

   -26.1915 -26.1891 -16.4975 -14.3945 -13.5473 -12.7634 -10.8875 -10.2209
    -9.1834  -8.5846  -8.1028  -6.2892  -5.7566  -5.2661  -4.6424   4.6650
     5.7789   7.5274   8.5165

     occupation numbers 
     1.0000   1.0000   1.0000   1.0000   1.0000   1.0000   1.0000   1.0000
     1.0000   1.0000   1.0000   1.0000   1.0000   1.0000   1.0000   0.0000
     0.0000   0.0000   0.0000

          k = 0.3333-0.3879-0.0000 (  3928 PWs)   bands (ev):

   -26.2947 -26.2891 -17.5620 -14.8669 -13.6429 -12.0514  -9.9497  -9.6549
    -9.1062  -8.2598  -7.6257  -6.4118  -5.4829  -4.6375  -4.4557   4.3203
     5.4403   6.9170   7.3911

     occupation numbers 
     1.0000   1.0000   1.0000   1.0000   1.0000   1.0000   1.0000   1.0000
     1.0000   1.0000   1.0000   1.0000   1.0000   1.0000   1.0000   0.0000
     0.0000   0.0000   0.0000

          k = 0.3333-0.2902-0.0000 (  3923 PWs)   bands (ev):

   -26.4313 -26.4210 -18.5047 -15.5806 -13.0911 -11.4295 -10.1777  -9.0348
    -8.2539  -7.6937  -7.0590  -6.2747  -5.1635  -4.4548  -3.7581   3.4575
     4.6137   5.8897   7.5572

     occupation numbers 
     1.0000   1.0000   1.0000   1.0000   1.0000   1.0000   1.0000   1.0000
     1.0000   1.0000   1.0000   1.0000   1.0000   1.0000   1.0000   0.0000
     0.0000   0.0000   0.0000

          k = 0.4167-0.2406-0.0000 (  3919 PWs)   bands (ev):

   -26.3731 -26.3659 -18.0061 -15.2490 -13.9461 -12.1416 -10.0878  -9.1215
    -7.9099  -7.7257  -6.9103  -6.5942  -5.1820  -4.4263  -3.5485   2.8870
     4.2000   5.2489   7.5399

     occupation numbers 
     1.0000   1.0000   1.0000   1.0000   1.0000   1.0000   1.0000   1.0000
     1.0000   1.0000   1.0000   1.0000   1.0000   1.0000   1.0000   0.0000
     0.0000   0.0000   0.0000

          k = 0.4167-0.1428-0.0000 (  3923 PWs)   bands (ev):

   -26.4363 -26.4259 -18.5257 -15.5982 -13.0581 -11.3994 -10.1812  -9.0243
    -8.2929  -7.6633  -7.1070  -6.2592  -5.1607  -4.4599  -3.7748   3.4797
     4.6351   5.9115   7.5835

     occupation numbers 
     1.0000   1.0000   1.0000   1.0000   1.0000   1.0000   1.0000   1.0000
     1.0000   1.0000   1.0000   1.0000   1.0000   1.0000   1.0000   0.0000
     0.0000   0.0000   0.0000

          k = 0.4167-0.0451-0.0000 (  3917 PWs)   bands (ev):

   -26.4702 -26.4577 -18.7875 -15.7968 -12.0692 -10.8919 -10.0675  -9.1434
    -8.8647  -8.1765  -7.0919  -6.0393  -5.0377  -4.5439  -4.3008   4.4270
     5.0865   6.9974   7.5210

     occupation numbers 
     1.0000   1.0000   1.0000   1.0000   1.0000   1.0000   1.0000   1.0000
     1.0000   1.0000   1.0000   1.0000   1.0000   1.0000   1.0000   0.0000
     0.0000   0.0000   0.0000

          k = 0.4167 0.0526-0.0000 (  3919 PWs)   bands (ev):

   -26.4635 -26.4511 -18.7733 -15.7815 -12.0129 -10.8619 -10.0691  -9.1741
    -8.8892  -8.2128  -7.1136  -6.0300  -5.0287  -4.5635  -4.3449   4.3718
     5.1179   6.9504   7.3252

     occupation numbers 
     1.0000   1.0000   1.0000   1.0000   1.0000   1.0000   1.0000   1.0000
     1.0000   1.0000   1.0000   1.0000   1.0000   1.0000   1.0000   0.0000
     0.0000   0.0000   0.0000

          k = 0.4167 0.1504-0.0000 (  3930 PWs)   bands (ev):

   -26.4180 -26.4076 -18.4827 -15.5494 -12.9954 -11.3355 -10.1652  -9.0052
    -8.4296  -7.6695  -7.2124  -6.2431  -5.1658  -4.5118  -3.8563   3.3164
     4.6820   5.7168   7.4476

     occupation numbers 
     1.0000   1.0000   1.0000   1.0000   1.0000   1.0000   1.0000   1.0000
     1.0000   1.0000   1.0000   1.0000   1.0000   1.0000   1.0000   0.0000
     0.0000   0.0000   0.0000

          k = 0.4167 0.2481-0.0000 (  3939 PWs)   bands (ev):

   -26.3477 -26.3405 -17.9328 -15.1520 -13.9342 -12.0968 -10.0609  -9.0961
    -8.0565  -7.7320  -7.0272  -6.5859  -5.1768  -4.5036  -3.6362   2.6661
     4.2309   5.0539   7.4540

     occupation numbers 
     1.0000   1.0000   1.0000   1.0000   1.0000   1.0000   1.0000   1.0000
     1.0000   1.0000   1.0000   1.0000   1.0000   1.0000   1.0000   0.0000
     0.0000   0.0000   0.0000

          k = 0.4167-0.8270 0.0000 (  3935 PWs)   bands (ev):

   -26.2737 -26.2697 -17.1970 -15.0379 -14.0909 -12.7521  -9.8459  -9.2688
    -8.6165  -7.8435  -7.4509  -6.6606  -5.3552  -4.5906  -3.9681   3.4349
     4.2113   5.5530   7.6994

     occupation numbers 
     1.0000   1.0000   1.0000   1.0000   1.0000   1.0000   1.0000   1.0000
     1.0000   1.0000   1.0000   1.0000   1.0000   1.0000   1.0000   0.0000
     0.0000   0.0000   0.0000

          k = 0.4167-0.7292 0.0000 (  3924 PWs)   bands (ev):

   -26.2165 -26.2142 -16.6018 -15.0097 -13.5528 -13.0423 -10.1823  -9.5002
    -9.2656  -8.2995  -7.9172  -6.5152  -5.6627  -4.6621  -4.6000   4.3604
     5.2203   6.9248   7.2095

     occupation numbers 
     1.0000   1.0000   1.0000   1.0000   1.0000   1.0000   1.0000   1.0000
     1.0000   1.0000   1.0000   1.0000   1.0000   1.0000   1.0000   0.0000
     0.0000   0.0000   0.0000

          k = 0.4167-0.6315-0.0000 (  3915 PWs)   bands (ev):

   -26.1895 -26.1869 -16.5187 -14.2465 -13.6941 -12.6549 -10.9148 -10.2851
    -9.1672  -8.5793  -8.1293  -6.2611  -5.7696  -5.2902  -4.6503   4.7011
     5.7279   7.5078   8.4319

     occupation numbers 
     1.0000   1.0000   1.0000   1.0000   1.0000   1.0000   1.0000   1.0000
     1.0000   1.0000   1.0000   1.0000   1.0000   1.0000   1.0000   0.0000
     0.0000   0.0000   0.0000

          k = 0.4167-0.5338-0.0000 (  3919 PWs)   bands (ev):

   -26.1966 -26.1940 -16.5533 -14.3574 -13.6017 -12.6746 -10.8969 -10.2340
    -9.1802  -8.5806  -8.1160  -6.2685  -5.7578  -5.2674  -4.6469   4.6702
     5.7686   7.5253   8.5494

     occupation numbers 
     1.0000   1.0000   1.0000   1.0000   1.0000   1.0000   1.0000   1.0000
     1.0000   1.0000   1.0000   1.0000   1.0000   1.0000   1.0000   0.0000
     0.0000   0.0000   0.0000

          k = 0.4167-0.4360-0.0000 (  3934 PWs)   bands (ev):

   -26.2357 -26.2333 -16.7051 -15.0728 -13.5736 -13.0261 -10.1096  -9.4836
    -9.2666  -8.2350  -7.9133  -6.5179  -5.6382  -4.6269  -4.5670   4.3106
     5.4238   7.0119   7.3604

     occupation numbers 
     1.0000   1.0000   1.0000   1.0000   1.0000   1.0000   1.0000   1.0000
     1.0000   1.0000   1.0000   1.0000   1.0000   1.0000   1.0000   0.0000
     0.0000   0.0000   0.0000

          k = 0.4167-0.3383-0.0000 (  3933 PWs)   bands (ev):

   -26.2995 -26.2955 -17.3016 -15.1366 -14.0891 -12.7597  -9.8750  -9.2720
    -8.5031  -7.8151  -7.3708  -6.6574  -5.3443  -4.5385  -3.8952   3.6545
     4.1951   5.7583   7.7942

     occupation numbers 
     1.0000   1.0000   1.0000   1.0000   1.0000   1.0000   1.0000   1.0000
     1.0000   1.0000   1.0000   1.0000   1.0000   1.0000   1.0000   0.0000
     0.0000   0.0000   0.0000

          k =-0.5000 0.2887 0.0000 (  3922 PWs)   bands (ev):

   -26.3004 -26.2976 -17.1053 -15.4734 -13.9647 -13.1945  -9.8466  -9.3051
    -8.0363  -7.8038  -7.0077  -6.8167  -5.2617  -4.4764  -3.6190   2.9918
     3.8940   5.1891   7.8737

     occupation numbers 
     1.0000   1.0000   1.0000   1.0000   1.0000   1.0000   1.0000   1.0000
     1.0000   1.0000   1.0000   1.0000   1.0000   1.0000   1.0000   0.0000
     0.0000   0.0000   0.0000

          k =-0.5000 0.3864 0.0000 (  3928 PWs)   bands (ev):

   -26.3014 -26.2973 -17.3201 -15.1254 -14.0974 -12.7337  -9.8841  -9.2594
    -8.5203  -7.7980  -7.3934  -6.6522  -5.3438  -4.5396  -3.9014   3.6595
     4.2067   5.7663   7.8029

     occupation numbers 
     1.0000   1.0000   1.0000   1.0000   1.0000   1.0000   1.0000   1.0000
     1.0000   1.0000   1.0000   1.0000   1.0000   1.0000   1.0000   0.0000
     0.0000   0.0000   0.0000

          k =-0.5000 0.4841 0.0000 (  3924 PWs)   bands (ev):

   -26.3017 -26.2958 -17.6060 -14.8946 -13.5968 -11.9888  -9.9800  -9.6564
    -9.1189  -8.2378  -7.6678  -6.3860  -5.4822  -4.6207  -4.4881   4.3314
     5.4475   6.9722   7.3676

     occupation numbers 
     1.0000   1.0000   1.0000   1.0000   1.0000   1.0000   1.0000   1.0000
     1.0000   1.0000   1.0000   1.0000   1.0000   1.0000   1.0000   0.0000
     0.0000   0.0000   0.0000

          k =-0.5000 0.5819 0.0000 (  3925 PWs)   bands (ev):

   -26.2974 -26.2909 -17.7036 -14.9049 -12.8655 -11.8306 -10.0486  -9.9689
    -9.5317  -8.5034  -7.6448  -6.2849  -5.3194  -5.0746  -4.5814   4.6272
     5.8786   6.7869   8.9320

     occupation numbers 
     1.0000   1.0000   1.0000   1.0000   1.0000   1.0000   1.0000   1.0000
     1.0000   1.0000   1.0000   1.0000   1.0000   1.0000   1.0000   0.0000
     0.0000   0.0000   0.0000

          k =-0.5000 0.6796 0.0000 (  3919 PWs)   bands (ev):

   -26.2879 -26.2821 -17.5662 -14.8267 -13.5762 -11.9442 -10.0234  -9.6934
    -9.1409  -8.2749  -7.6981  -6.3727  -5.4995  -4.6391  -4.5415   4.3309
     5.3613   6.9164   7.1639

     occupation numbers 
     1.0000   1.0000   1.0000   1.0000   1.0000   1.0000   1.0000   1.0000
     1.0000   1.0000   1.0000   1.0000   1.0000   1.0000   1.0000   0.0000
     0.0000   0.0000   0.0000

          k =-0.5000 0.7774 0.0000 (  3945 PWs)   bands (ev):

   -26.2776 -26.2736 -17.2361 -15.0111 -14.1122 -12.6967  -9.8663  -9.2386
    -8.6552  -7.7992  -7.5073  -6.6487  -5.3550  -4.5920  -3.9811   3.4503
     4.2316   5.5697   7.7023

     occupation numbers 
     1.0000   1.0000   1.0000   1.0000   1.0000   1.0000   1.0000   1.0000
     1.0000   1.0000   1.0000   1.0000   1.0000   1.0000   1.0000   0.0000
     0.0000   0.0000   0.0000

          k =-0.5000-0.2977 0.0001 (  3942 PWs)   bands (ev):

   -26.2730 -26.2701 -16.9873 -15.4043 -13.9251 -13.1927  -9.8108  -9.2845
    -8.1871  -7.8113  -7.1287  -6.8126  -5.2575  -4.5553  -3.7081   2.7351
     3.9463   4.9788   7.8572

     occupation numbers 
     1.0000   1.0000   1.0000   1.0000   1.0000   1.0000   1.0000   1.0000
     1.0000   1.0000   1.0000   1.0000   1.0000   1.0000   1.0000   0.0000
     0.0000   0.0000   0.0000

     the Fermi energy is     0.2137 ev

!    total energy              =    -189.93982590 Ry
     Harris-Foulkes estimate   =    -189.93982602 Ry
     estimated scf accuracy    <       0.00000013 Ry

     total all-electron energy =      -701.911941 Ry

     The total energy is the sum of the following terms:

     one-electron contribution =   -1507.97306882 Ry
     hartree contribution      =     763.64048537 Ry
     xc contribution           =     -37.16545334 Ry
     ewald contribution        =     636.55494569 Ry
     one-center paw contrib.   =     -44.99673481 Ry
      -> PAW hartree energy AE =     117.54719476 Ry
      -> PAW hartree energy PS =    -117.46748653 Ry
      -> PAW xc energy AE      =     -80.46395131 Ry
      -> PAW xc energy PS      =      35.38750827 Ry
      -> total E_H with PAW    =     763.72019360 Ry
      -> total E_XC with PAW   =     -82.24189638 Ry
     smearing contrib. (-TS)   =      -0.00000000 Ry

     convergence has been achieved in   8 iterations

     negative rho (up, down):  6.198E-04 0.000E+00

     Forces acting on atoms (cartesian axes, Ry/au):

     atom    1 type  1   force =    -0.00016007    0.00083009   -0.00935923
     atom    2 type  1   force =     0.00044759   -0.00130195    0.00068426
     atom    3 type  1   force =     0.00016099   -0.00083054    0.00942396
     atom    4 type  1   force =    -0.00045073    0.00130087   -0.00069369
     atom    5 type  2   force =    -0.00013510    0.00023792    0.01745583
     atom    6 type  2   force =     0.00013732   -0.00023639   -0.01751113
     The non-local contrib.  to forces
     atom    1 type  1   force =    -0.00479390    0.00856037   -0.40610088
     atom    2 type  1   force =     0.00454343   -0.00816595    0.08459049
     atom    3 type  1   force =     0.00479128   -0.00856161    0.40608276
     atom    4 type  1   force =    -0.00454513    0.00816434   -0.08467928
     atom    5 type  2   force =     0.00102085   -0.00170535    3.17158780
     atom    6 type  2   force =    -0.00099466    0.00172058   -3.17177707
     The ionic contribution  to forces
     atom    1 type  1   force =    -0.05452215    0.09279026  -13.38308539
     atom    2 type  1   force =     0.05675903   -0.09638593   -9.40498550
     atom    3 type  1   force =     0.05456154   -0.09276696   13.38324518
     atom    4 type  1   force =    -0.05676712    0.09637921    9.40496452
     atom    5 type  2   force =    -0.00652522    0.01075344  -66.90027713
     atom    6 type  2   force =     0.00649391   -0.01077002   66.90013832
     The local contribution  to forces
     atom    1 type  1   force =     0.05882414   -0.09994511   13.77176242
     atom    2 type  1   force =    -0.06051880    0.10267563    9.32269144
     atom    3 type  1   force =    -0.05886182    0.09992269  -13.77213521
     atom    4 type  1   force =     0.06052813   -0.10266722   -9.32284504
     atom    5 type  2   force =     0.00537508   -0.00881771   63.75673995
     atom    6 type  2   force =    -0.00536679    0.00882061  -63.75665472
     The core correction contribution to forces
     atom    1 type  1   force =     0.00033427   -0.00057842    0.00841081
     atom    2 type  1   force =    -0.00033424    0.00057143   -0.00134225
     atom    3 type  1   force =    -0.00033172    0.00057834   -0.00848925
     atom    4 type  1   force =     0.00033190   -0.00057213    0.00120526
     atom    5 type  2   force =    -0.00000460    0.00000593   -0.01024498
     atom    6 type  2   force =     0.00000417   -0.00000611    0.01024586
     The Hubbard contrib.    to forces
     atom    1 type  1   force =     0.00000000    0.00000000    0.00000000
     atom    2 type  1   force =     0.00000000    0.00000000    0.00000000
     atom    3 type  1   force =     0.00000000    0.00000000    0.00000000
     atom    4 type  1   force =     0.00000000    0.00000000    0.00000000
     atom    5 type  2   force =     0.00000000    0.00000000    0.00000000
     atom    6 type  2   force =     0.00000000    0.00000000    0.00000000
     The SCF correction term to forces
     atom    1 type  1   force =    -0.00000218    0.00000301   -0.00040595
     atom    2 type  1   force =    -0.00000159    0.00000289   -0.00032967
     atom    3 type  1   force =     0.00000195   -0.00000298    0.00066072
     atom    4 type  1   force =     0.00000175   -0.00000332    0.00060108
     atom    5 type  2   force =    -0.00000095    0.00000163   -0.00040957
     atom    6 type  2   force =     0.00000094   -0.00000143    0.00047672

     Total force =     0.028179     Total SCF correction =     0.001211


     Computing stress (Cartesian axis) and pressure


     negative rho (up, down):  6.198E-04 0.000E+00
          total   stress  (Ry/bohr**3)                   (kbar)     P=  -22.43
  -0.00025167   0.00006508   0.00000108        -37.02      9.57      0.16
   0.00006508  -0.00002742  -0.00000334          9.57     -4.03     -0.49
   0.00000108  -0.00000334  -0.00017841          0.16     -0.49    -26.25

     kinetic stress (kbar)   9155.62      9.94     -1.91
                                9.94   9189.14      3.08
                               -1.91      3.08   8331.07

     local   stress (kbar)-287140.94    -61.28    -39.20
                              -61.28-287341.30     65.77
                              -39.20     65.77 276803.75

     nonloc. stress (kbar)   3145.00      0.25      0.55
                                0.25   3145.96     -0.96
                                0.55     -0.96   2881.83

     hartree stress (kbar) 141564.73     20.92      9.66
                               20.92 141632.14    -16.04
                                9.66    -16.04-137053.42

     exc-cor stress (kbar)  -1131.33      0.06      0.05
                                0.06  -1131.13     -0.08
                                0.05     -0.08  -1127.91

     corecor stress (kbar)   -939.81     -0.18     -0.09
                               -0.18   -940.46      0.16
                               -0.09      0.16   -932.44

     ewald   stress (kbar) 135309.70     39.86     31.11
                               39.86 135441.61    -52.42
                               31.11    -52.42-148929.14

     hubbard stress (kbar)      0.00      0.00      0.00
                                0.00      0.00      0.00
                                0.00      0.00      0.00

     london  stress (kbar)      0.00      0.00      0.00
                                0.00      0.00      0.00
                                0.00      0.00      0.00

     DFT-D3  stress (kbar)      0.00      0.00      0.00
                                0.00      0.00      0.00
                                0.00      0.00      0.00

     XDM     stress (kbar)      0.00      0.00      0.00
                                0.00      0.00      0.00
                                0.00      0.00      0.00

     dft-nl  stress (kbar)      0.00      0.00      0.00
                                0.00      0.00      0.00
                                0.00      0.00      0.00

     TS-vdW  stress (kbar)      0.00      0.00      0.00
                                0.00      0.00      0.00
                                0.00      0.00      0.00

     3D-RISM stress (kbar)      0.00      0.00      0.00
                                0.00      0.00      0.00
                                0.00      0.00      0.00



     Writing output data file pwscf.save\

     init_run     :     14.89s CPU      8.14s WALL (       1 calls)
     electrons    :    103.94s CPU     64.73s WALL (       1 calls)
     forces       :      8.61s CPU      1.47s WALL (       1 calls)
     stress       :     22.39s CPU      4.86s WALL (       1 calls)

     Called by init_run:
     wfcinit      :      4.69s CPU      3.28s WALL (       1 calls)
     wfcinit:atom :      0.16s CPU      0.08s WALL (      74 calls)
     wfcinit:wfcr :      3.72s CPU      2.48s WALL (      74 calls)
     potinit      :      4.17s CPU      0.63s WALL (       1 calls)
     hinit0       :      5.86s CPU      4.06s WALL (       1 calls)

     Called by electrons:
     c_bands      :     81.17s CPU     52.60s WALL (       8 calls)
     sum_band     :     17.62s CPU      9.82s WALL (       8 calls)
     v_of_rho     :      1.58s CPU      0.54s WALL (       9 calls)
     v_h          :      0.06s CPU      0.04s WALL (       9 calls)
     v_xc         :      1.92s CPU      0.62s WALL (      11 calls)
     newd         :      1.05s CPU      0.68s WALL (       9 calls)
     PAW_pot      :      2.70s CPU      1.24s WALL (       9 calls)
     mix_rho      :      0.23s CPU      0.08s WALL (       8 calls)

     Called by c_bands:
     init_us_2    :      1.39s CPU      0.83s WALL (    1406 calls)
     cegterg      :     78.27s CPU     51.11s WALL (     592 calls)

     Called by sum_band:
     sum_band:bec :      0.31s CPU      0.38s WALL (     592 calls)
     addusdens    :      1.41s CPU      0.82s WALL (       8 calls)

     Called by *egterg:
     h_psi        :     70.44s CPU     41.07s WALL (    2726 calls)
     s_psi        :      2.88s CPU      2.08s WALL (    2726 calls)
     g_psi        :      0.38s CPU      0.34s WALL (    2060 calls)
     cdiaghg      :      1.69s CPU      1.71s WALL (    2652 calls)
     cegterg:over :      2.95s CPU      2.63s WALL (    2060 calls)
     cegterg:upda :      1.39s CPU      2.21s WALL (    2060 calls)
     cegterg:last :      0.52s CPU      0.69s WALL (     598 calls)

     Called by h_psi:
     h_psi:pot    :     69.70s CPU     40.30s WALL (    2726 calls)
     h_psi:calbec :      4.94s CPU      1.98s WALL (    2726 calls)
     vloc_psi     :     63.06s CPU     36.41s WALL (    2726 calls)
     add_vuspsi   :      1.69s CPU      1.89s WALL (    2726 calls)

     General routines
     calbec       :      6.61s CPU      3.00s WALL (    3688 calls)
     fft          :      0.14s CPU      0.11s WALL (     140 calls)
     ffts         :      0.00s CPU      0.01s WALL (      17 calls)
     fftw         :     38.55s CPU     21.64s WALL (   78212 calls)
     interpolate  :      0.02s CPU      0.03s WALL (       9 calls)

     Parallel routines

     PAW routines
     PAW_pot      :      2.70s CPU      1.24s WALL (       9 calls)

     PWSCF        :   2m31.80s CPU   1m21.74s WALL


   This run was terminated on:  14:25: 4   1Dec2024            

=------------------------------------------------------------------------------=
   JOB DONE.
=------------------------------------------------------------------------------=
