
     Program PWSCF v.6.4.1 starts on  1Dec2024 at 14:15:42 

     This program is part of the open-source Quantum ESPRESSO suite
     for quantum simulation of materials; please cite
         "P. Giannozzi et al., J. Phys.:Condens. Matter 21 395502 (2009);
         "P. Giannozzi et al., J. Phys.:Condens. Matter 29 465901 (2017);
          URL http://www.quantum-espresso.org", 
     in publications or presentations arising from this work. More details at
     http://www.quantum-espresso.org/quote

     Parallel version (MPI & OpenMP), running on      12 processor cores
     Number of MPI processes:                 1
     Threads/MPI process:                    12

     MPI processes distributed on     1 nodes
     Waiting for input...
     Reading input from standard input
Warning: card &IONS ignored
Warning: card ION_DYNAMICS = 'BFGS' ignored
Warning: card / ignored
Warning: card &CELL ignored
Warning: card CELL_DOFREE = 'ALL' ignored
Warning: card CELL_DYNAMICS = 'BFGS' ignored
Warning: card PRESS = 0.0 ignored
Warning: card PRESS_CONV_THR = 0.5 ignored
Warning: card / ignored

     Current dimensions of program PWSCF are:
     Max number of different atomic species (ntypx) = 10
     Max number of k-points (npk) =  40000
     Max angular momentum in pseudopotentials (lmaxx) =  3
               file C.pbesol-n-kjpaw_psl.1.0.0.UPF: wavefunction(s)  2S 2P renormalized
               file F.pbesol-n-kjpaw_psl.1.0.0.UPF: wavefunction(s)  2S 2P renormalized

     Subspace diagonalization in iterative solution of the eigenvalue problem:
     a serial algorithm will be used


     G-vector sticks info
     --------------------
     sticks:   dense  smooth     PW     G-vecs:    dense   smooth      PW
     Sum         575     285     97                86711    30611    6181



     bravais-lattice index     =            0
     lattice parameter (alat)  =       4.7735  a.u.
     unit-cell volume          =     750.8307 (a.u.)^3
     number of atoms/cell      =            6
     number of atomic types    =            2
     number of electrons       =        30.00
     number of Kohn-Sham states=           19
     kinetic-energy cutoff     =      45.0000  Ry
     charge density cutoff     =     360.0000  Ry
     convergence threshold     =      1.0E-06
     mixing beta               =       0.7000
     number of iterations used =            8  plain     mixing
     Exchange-correlation      = SLA PW PSX PSC ( 1  4 10  8 0 0)

     celldm(1)=   4.773470  celldm(2)=   0.000000  celldm(3)=   0.000000
     celldm(4)=   0.000000  celldm(5)=   0.000000  celldm(6)=   0.000000

     crystal axes: (cart. coord. in units of alat)
               a(1) = (   1.000000  -0.000000   0.000000 )  
               a(2) = (   0.503959   0.872882   0.000000 )  
               a(3) = (   0.000645   0.000379   7.908312 )  

     reciprocal axes: (cart. coord. in units 2 pi/alat)
               b(1) = (  1.000000 -0.577350 -0.000054 )  
               b(2) = (  0.000000  1.145630 -0.000055 )  
               b(3) = ( -0.000000  0.000000  0.126449 )  


     PseudoPot. # 1 for C  read from file:
     .\C.pbesol-n-kjpaw_psl.1.0.0.UPF
     MD5 check sum: f9b2fe17d1f478429498b05d17159f9e
     Pseudo is Projector augmented-wave + core cor, Zval =  4.0
     Generated using "atomic" code by A. Dal Corso v.6.3
     Shape of augmentation charge: PSQ
     Using radial grid of 1073 points,  4 beta functions with: 
                l(1) =   0
                l(2) =   0
                l(3) =   1
                l(4) =   1
     Q(r) pseudized with 0 coefficients 


     PseudoPot. # 2 for F  read from file:
     .\F.pbesol-n-kjpaw_psl.1.0.0.UPF
     MD5 check sum: d939582bcd23f1ece12cfc4fab8d9d36
     Pseudo is Projector augmented-wave + core cor, Zval =  7.0
     Generated using "atomic" code by A. Dal Corso v.6.3
     Shape of augmentation charge: PSQ
     Using radial grid of 1105 points,  4 beta functions with: 
                l(1) =   0
                l(2) =   0
                l(3) =   1
                l(4) =   1
     Q(r) pseudized with 0 coefficients 


     atomic species   valence    mass     pseudopotential
        C              4.00    12.01070     C ( 1.00)
        F              7.00    18.99840     F ( 1.00)

     No symmetry found


                                    s                        frac. trans.

      isym =  1     identity                                     

 cryst.   s( 1) = (     1          0          0      )
                  (     0          1          0      )
                  (     0          0          1      )

 cart.    s( 1) = (  1.0000000  0.0000000  0.0000000 )
                  ( -0.0000000  1.0000000  0.0000000 )
                  (  0.0000000  0.0000000  1.0000000 )


   Cartesian axes

     site n.     atom                  positions (alat units)
         1           C   tau(   1) = (   0.0003546   0.0002086   3.9812690  )
         2           C   tau(   2) = (   0.5016749   0.2911697   4.1803936  )
         3           C   tau(   3) = (   1.0029912   0.5821270   4.9946828  )
         4           C   tau(   4) = (   0.5016713   0.2911661   4.7955540  )
         5           F   tau(   5) = (   0.0003476   0.0002035   3.4356793  )
         6           F   tau(   6) = (   1.0029942   0.5821298   5.5402758  )

   Crystallographic axes

     site n.     atom                  positions (cryst. coord.)
         1           C   tau(   1) = (  0.0000192  0.0000206  0.5034284  )
         2           C   tau(   2) = (  0.3333424  0.3333434  0.5286075  )
         3           C   tau(   3) = (  0.6666304  0.6666281  0.6315738  )
         4           C   tau(   4) = (  0.3333076  0.3333056  0.6063941  )
         5           F   tau(   5) = (  0.0000446  0.0000447  0.4344390  )
         6           F   tau(   6) = (  0.6666024  0.6666014  0.7005636  )

     number of k points=    74  Marzari-Vanderbilt smearing, width (Ry)=  0.0200
                       cart. coord. in units 2pi/alat
        k(    1) = (   0.0000000   0.0000000   0.0000000), wk =   0.0138889
        k(    2) = (   0.0000000   0.0954691  -0.0000046), wk =   0.0277778
        k(    3) = (   0.0000000   0.1909383  -0.0000091), wk =   0.0277778
        k(    4) = (   0.0000001   0.2864074  -0.0000137), wk =   0.0277778
        k(    5) = (   0.0000001   0.3818765  -0.0000183), wk =   0.0277778
        k(    6) = (   0.0000001   0.4773457  -0.0000229), wk =   0.0277778
        k(    7) = (  -0.0000001  -0.5728148   0.0000274), wk =   0.0138889
        k(    8) = (   0.0833333  -0.0481125  -0.0000045), wk =   0.0277778
        k(    9) = (   0.0833333   0.0473566  -0.0000091), wk =   0.0277778
        k(   10) = (   0.0833334   0.1428258  -0.0000136), wk =   0.0277778
        k(   11) = (   0.0833334   0.2382949  -0.0000182), wk =   0.0277778
        k(   12) = (   0.0833334   0.3337640  -0.0000228), wk =   0.0277778
        k(   13) = (   0.0833334   0.4292332  -0.0000274), wk =   0.0277778
        k(   14) = (   0.0833332  -0.6209273   0.0000229), wk =   0.0277778
        k(   15) = (   0.0833332  -0.5254582   0.0000184), wk =   0.0277778
        k(   16) = (   0.0833332  -0.4299891   0.0000138), wk =   0.0277778
        k(   17) = (   0.0833333  -0.3345199   0.0000092), wk =   0.0277778
        k(   18) = (   0.0833333  -0.2390508   0.0000046), wk =   0.0277778
        k(   19) = (   0.0833333  -0.1435816   0.0000001), wk =   0.0277778
        k(   20) = (   0.1666666  -0.0962250  -0.0000090), wk =   0.0277778
        k(   21) = (   0.1666667  -0.0007559  -0.0000136), wk =   0.0277778
        k(   22) = (   0.1666667   0.0947133  -0.0000181), wk =   0.0277778
        k(   23) = (   0.1666667   0.1901824  -0.0000227), wk =   0.0277778
        k(   24) = (   0.1666667   0.2856515  -0.0000273), wk =   0.0277778
        k(   25) = (   0.1666667   0.3811207  -0.0000319), wk =   0.0277778
        k(   26) = (   0.1666665  -0.6690398   0.0000184), wk =   0.0277778
        k(   27) = (   0.1666665  -0.5735707   0.0000139), wk =   0.0277778
        k(   28) = (   0.1666666  -0.4781016   0.0000093), wk =   0.0277778
        k(   29) = (   0.1666666  -0.3826324   0.0000047), wk =   0.0277778
        k(   30) = (   0.1666666  -0.2871633   0.0000001), wk =   0.0277778
        k(   31) = (   0.1666666  -0.1916942  -0.0000044), wk =   0.0277778
        k(   32) = (   0.2500000  -0.1443375  -0.0000135), wk =   0.0277778
        k(   33) = (   0.2500000  -0.0488684  -0.0000181), wk =   0.0277778
        k(   34) = (   0.2500000   0.0466008  -0.0000226), wk =   0.0277778
        k(   35) = (   0.2500000   0.1420699  -0.0000272), wk =   0.0277778
        k(   36) = (   0.2500000   0.2375390  -0.0000318), wk =   0.0277778
        k(   37) = (   0.2500001   0.3330082  -0.0000364), wk =   0.0277778
        k(   38) = (   0.2499999  -0.7171523   0.0000139), wk =   0.0277778
        k(   39) = (   0.2499999  -0.6216832   0.0000094), wk =   0.0277778
        k(   40) = (   0.2499999  -0.5262141   0.0000048), wk =   0.0277778
        k(   41) = (   0.2499999  -0.4307449   0.0000002), wk =   0.0277778
        k(   42) = (   0.2499999  -0.3352758  -0.0000044), wk =   0.0277778
        k(   43) = (   0.2500000  -0.2398067  -0.0000089), wk =   0.0277778
        k(   44) = (   0.3333333  -0.1924500  -0.0000180), wk =   0.0277778
        k(   45) = (   0.3333333  -0.0969809  -0.0000226), wk =   0.0277778
        k(   46) = (   0.3333333  -0.0015118  -0.0000271), wk =   0.0277778
        k(   47) = (   0.3333334   0.0939574  -0.0000317), wk =   0.0277778
        k(   48) = (   0.3333334   0.1894265  -0.0000363), wk =   0.0277778
        k(   49) = (   0.3333334   0.2848957  -0.0000409), wk =   0.0277778
        k(   50) = (   0.3333332  -0.7652649   0.0000094), wk =   0.0277778
        k(   51) = (   0.3333332  -0.6697957   0.0000049), wk =   0.0277778
        k(   52) = (   0.3333332  -0.5743266   0.0000003), wk =   0.0277778
        k(   53) = (   0.3333332  -0.4788574  -0.0000043), wk =   0.0277778
        k(   54) = (   0.3333333  -0.3833883  -0.0000088), wk =   0.0277778
        k(   55) = (   0.3333333  -0.2879192  -0.0000134), wk =   0.0277778
        k(   56) = (   0.4166666  -0.2405625  -0.0000225), wk =   0.0277778
        k(   57) = (   0.4166666  -0.1450934  -0.0000271), wk =   0.0277778
        k(   58) = (   0.4166667  -0.0496243  -0.0000316), wk =   0.0277778
        k(   59) = (   0.4166667   0.0458449  -0.0000362), wk =   0.0277778
        k(   60) = (   0.4166667   0.1413140  -0.0000408), wk =   0.0277778
        k(   61) = (   0.4166667   0.2367832  -0.0000453), wk =   0.0277778
        k(   62) = (   0.4166665  -0.8133774   0.0000049), wk =   0.0277778
        k(   63) = (   0.4166665  -0.7179082   0.0000004), wk =   0.0277778
        k(   64) = (   0.4166665  -0.6224391  -0.0000042), wk =   0.0277778
        k(   65) = (   0.4166666  -0.5269699  -0.0000088), wk =   0.0277778
        k(   66) = (   0.4166666  -0.4315008  -0.0000133), wk =   0.0277778
        k(   67) = (   0.4166666  -0.3360317  -0.0000179), wk =   0.0277778
        k(   68) = (  -0.4999999   0.2886750   0.0000270), wk =   0.0138889
        k(   69) = (  -0.4999999   0.3841442   0.0000224), wk =   0.0277778
        k(   70) = (  -0.4999999   0.4796133   0.0000178), wk =   0.0277778
        k(   71) = (  -0.4999999   0.5750825   0.0000133), wk =   0.0277778
        k(   72) = (  -0.4999999   0.6705516   0.0000087), wk =   0.0277778
        k(   73) = (  -0.4999998   0.7660207   0.0000041), wk =   0.0277778
        k(   74) = (  -0.5000001  -0.2841398   0.0000544), wk =   0.0138889

                       cryst. coord.
        k(    1) = (   0.0000000   0.0000000   0.0000000), wk =   0.0138889
        k(    2) = (  -0.0000000   0.0833333   0.0000000), wk =   0.0277778
        k(    3) = (  -0.0000000   0.1666667   0.0000000), wk =   0.0277778
        k(    4) = (  -0.0000000   0.2500000   0.0000000), wk =   0.0277778
        k(    5) = (  -0.0000000   0.3333333   0.0000000), wk =   0.0277778
        k(    6) = (  -0.0000000   0.4166667  -0.0000000), wk =   0.0277778
        k(    7) = (   0.0000000  -0.5000000   0.0000000), wk =   0.0138889
        k(    8) = (   0.0833333   0.0000000   0.0000000), wk =   0.0277778
        k(    9) = (   0.0833333   0.0833333   0.0000000), wk =   0.0277778
        k(   10) = (   0.0833333   0.1666667   0.0000000), wk =   0.0277778
        k(   11) = (   0.0833333   0.2500000  -0.0000000), wk =   0.0277778
        k(   12) = (   0.0833333   0.3333333   0.0000000), wk =   0.0277778
        k(   13) = (   0.0833333   0.4166667   0.0000000), wk =   0.0277778
        k(   14) = (   0.0833333  -0.5000000   0.0000000), wk =   0.0277778
        k(   15) = (   0.0833333  -0.4166667   0.0000000), wk =   0.0277778
        k(   16) = (   0.0833333  -0.3333333  -0.0000000), wk =   0.0277778
        k(   17) = (   0.0833333  -0.2500000   0.0000000), wk =   0.0277778
        k(   18) = (   0.0833333  -0.1666667  -0.0000000), wk =   0.0277778
        k(   19) = (   0.0833333  -0.0833333   0.0000000), wk =   0.0277778
        k(   20) = (   0.1666667   0.0000000   0.0000000), wk =   0.0277778
        k(   21) = (   0.1666667   0.0833333   0.0000000), wk =   0.0277778
        k(   22) = (   0.1666667   0.1666667   0.0000000), wk =   0.0277778
        k(   23) = (   0.1666667   0.2500000   0.0000000), wk =   0.0277778
        k(   24) = (   0.1666667   0.3333333   0.0000000), wk =   0.0277778
        k(   25) = (   0.1666667   0.4166667  -0.0000000), wk =   0.0277778
        k(   26) = (   0.1666667  -0.5000000   0.0000000), wk =   0.0277778
        k(   27) = (   0.1666667  -0.4166667   0.0000000), wk =   0.0277778
        k(   28) = (   0.1666667  -0.3333333   0.0000000), wk =   0.0277778
        k(   29) = (   0.1666667  -0.2500000  -0.0000000), wk =   0.0277778
        k(   30) = (   0.1666667  -0.1666667   0.0000000), wk =   0.0277778
        k(   31) = (   0.1666667  -0.0833333   0.0000000), wk =   0.0277778
        k(   32) = (   0.2500000   0.0000000   0.0000000), wk =   0.0277778
        k(   33) = (   0.2500000   0.0833333   0.0000000), wk =   0.0277778
        k(   34) = (   0.2500000   0.1666667  -0.0000000), wk =   0.0277778
        k(   35) = (   0.2500000   0.2500000   0.0000000), wk =   0.0277778
        k(   36) = (   0.2500000   0.3333333   0.0000000), wk =   0.0277778
        k(   37) = (   0.2500000   0.4166667   0.0000000), wk =   0.0277778
        k(   38) = (   0.2500000  -0.5000000   0.0000000), wk =   0.0277778
        k(   39) = (   0.2500000  -0.4166667   0.0000000), wk =   0.0277778
        k(   40) = (   0.2500000  -0.3333333   0.0000000), wk =   0.0277778
        k(   41) = (   0.2500000  -0.2500000   0.0000000), wk =   0.0277778
        k(   42) = (   0.2500000  -0.1666667   0.0000000), wk =   0.0277778
        k(   43) = (   0.2500000  -0.0833333   0.0000000), wk =   0.0277778
        k(   44) = (   0.3333333   0.0000000   0.0000000), wk =   0.0277778
        k(   45) = (   0.3333333   0.0833333  -0.0000000), wk =   0.0277778
        k(   46) = (   0.3333333   0.1666667   0.0000000), wk =   0.0277778
        k(   47) = (   0.3333333   0.2500000   0.0000000), wk =   0.0277778
        k(   48) = (   0.3333333   0.3333333   0.0000000), wk =   0.0277778
        k(   49) = (   0.3333333   0.4166667   0.0000000), wk =   0.0277778
        k(   50) = (   0.3333333  -0.5000000  -0.0000000), wk =   0.0277778
        k(   51) = (   0.3333333  -0.4166667   0.0000000), wk =   0.0277778
        k(   52) = (   0.3333333  -0.3333333   0.0000000), wk =   0.0277778
        k(   53) = (   0.3333333  -0.2500000   0.0000000), wk =   0.0277778
        k(   54) = (   0.3333333  -0.1666667   0.0000000), wk =   0.0277778
        k(   55) = (   0.3333333  -0.0833333   0.0000000), wk =   0.0277778
        k(   56) = (   0.4166667   0.0000000   0.0000000), wk =   0.0277778
        k(   57) = (   0.4166667   0.0833333   0.0000000), wk =   0.0277778
        k(   58) = (   0.4166667   0.1666667   0.0000000), wk =   0.0277778
        k(   59) = (   0.4166667   0.2500000  -0.0000000), wk =   0.0277778
        k(   60) = (   0.4166667   0.3333333  -0.0000000), wk =   0.0277778
        k(   61) = (   0.4166667   0.4166667  -0.0000000), wk =   0.0277778
        k(   62) = (   0.4166667  -0.5000000   0.0000000), wk =   0.0277778
        k(   63) = (   0.4166667  -0.4166667   0.0000000), wk =   0.0277778
        k(   64) = (   0.4166667  -0.3333333  -0.0000000), wk =   0.0277778
        k(   65) = (   0.4166667  -0.2500000   0.0000000), wk =   0.0277778
        k(   66) = (   0.4166667  -0.1666667   0.0000000), wk =   0.0277778
        k(   67) = (   0.4166667  -0.0833333   0.0000000), wk =   0.0277778
        k(   68) = (  -0.5000000   0.0000000   0.0000000), wk =   0.0138889
        k(   69) = (  -0.5000000   0.0833333  -0.0000000), wk =   0.0277778
        k(   70) = (  -0.5000000   0.1666667   0.0000000), wk =   0.0277778
        k(   71) = (  -0.5000000   0.2500000   0.0000000), wk =   0.0277778
        k(   72) = (  -0.5000000   0.3333333   0.0000000), wk =   0.0277778
        k(   73) = (  -0.5000000   0.4166667   0.0000000), wk =   0.0277778
        k(   74) = (  -0.5000000  -0.5000000   0.0000000), wk =   0.0138889

     Dense  grid:    86711 G-vectors     FFT dimensions: (  30,  30, 240)

     Smooth grid:    30611 G-vectors     FFT dimensions: (  24,  24, 162)

     Dynamical RAM for                 wfc:       1.11 MB

     Dynamical RAM for     wfc (w. buffer):      83.21 MB

     Dynamical RAM for           str. fact:       2.65 MB

     Dynamical RAM for           local pot:       0.00 MB

     Dynamical RAM for          nlocal pot:       2.80 MB

     Dynamical RAM for                qrad:       0.66 MB

     Dynamical RAM for          rho,v,vnew:       8.91 MB

     Dynamical RAM for               rhoin:       2.97 MB

     Dynamical RAM for            rho*nmix:      21.17 MB

     Dynamical RAM for           G-vectors:       5.20 MB

     Dynamical RAM for          h,s,v(r/c):       0.26 MB

     Dynamical RAM for          <psi|beta>:       0.01 MB

     Dynamical RAM for                 psi:       4.44 MB

     Dynamical RAM for                hpsi:       4.44 MB

     Dynamical RAM for                spsi:       4.44 MB

     Dynamical RAM for      wfcinit/wfcrot:       2.82 MB

     Dynamical RAM for           addusdens:      62.19 MB

     Dynamical RAM for          addusforce:      78.73 MB

     Dynamical RAM for         addusstress:      66.16 MB

     Estimated static dynamical RAM per process >     139.78 MB

     Estimated max dynamical RAM per process >     218.51 MB

     Check: negative core charge=   -0.000006

     Initial potential from superposition of free atoms

     starting charge   29.99983, renormalised to   30.00000

     negative rho (up, down):  5.034E-04 0.000E+00
     Starting wfcs are   24 randomized atomic wfcs
     Checking if some PAW data can be deallocated... 

     total cpu time spent up to now is       10.0 secs

     Self-consistent Calculation

     iteration #  1     ecut=    45.00 Ry     beta= 0.70
     Davidson diagonalization with overlap
     ethr =  1.00E-02,  avg # of iterations =  2.7

     negative rho (up, down):  5.926E-04 0.000E+00

     total cpu time spent up to now is       18.4 secs

     total energy              =    -189.88146082 Ry
     Harris-Foulkes estimate   =    -190.06339017 Ry
     estimated scf accuracy    <       0.33362546 Ry

     iteration #  2     ecut=    45.00 Ry     beta= 0.70
     Davidson diagonalization with overlap
     ethr =  1.11E-03,  avg # of iterations =  2.4

     negative rho (up, down):  6.189E-04 0.000E+00

     total cpu time spent up to now is       25.9 secs

     total energy              =    -189.91192246 Ry
     Harris-Foulkes estimate   =    -189.96515782 Ry
     estimated scf accuracy    <       0.08501867 Ry

     iteration #  3     ecut=    45.00 Ry     beta= 0.70
     Davidson diagonalization with overlap
     ethr =  2.83E-04,  avg # of iterations =  5.2

     negative rho (up, down):  6.308E-04 0.000E+00

     total cpu time spent up to now is       34.6 secs

     total energy              =    -189.93110775 Ry
     Harris-Foulkes estimate   =    -189.95007725 Ry
     estimated scf accuracy    <       0.03671665 Ry

     iteration #  4     ecut=    45.00 Ry     beta= 0.70
     Davidson diagonalization with overlap
     ethr =  1.22E-04,  avg # of iterations =  4.3

     negative rho (up, down):  6.318E-04 0.000E+00

     total cpu time spent up to now is       42.1 secs

     total energy              =    -189.93903251 Ry
     Harris-Foulkes estimate   =    -189.94337972 Ry
     estimated scf accuracy    <       0.01007089 Ry

     iteration #  5     ecut=    45.00 Ry     beta= 0.70
     Davidson diagonalization with overlap
     ethr =  3.36E-05,  avg # of iterations =  3.7

     negative rho (up, down):  6.353E-04 0.000E+00

     total cpu time spent up to now is       49.3 secs

     total energy              =    -189.94096975 Ry
     Harris-Foulkes estimate   =    -189.94098977 Ry
     estimated scf accuracy    <       0.00006169 Ry

     iteration #  6     ecut=    45.00 Ry     beta= 0.70
     Davidson diagonalization with overlap
     ethr =  2.06E-07,  avg # of iterations =  4.5

     negative rho (up, down):  6.366E-04 0.000E+00

     total cpu time spent up to now is       58.6 secs

     total energy              =    -189.94101982 Ry
     Harris-Foulkes estimate   =    -189.94102949 Ry
     estimated scf accuracy    <       0.00002302 Ry

     iteration #  7     ecut=    45.00 Ry     beta= 0.70
     Davidson diagonalization with overlap
     ethr =  7.67E-08,  avg # of iterations =  2.0

     negative rho (up, down):  6.371E-04 0.000E+00

     total cpu time spent up to now is       64.7 secs

     total energy              =    -189.94102101 Ry
     Harris-Foulkes estimate   =    -189.94102214 Ry
     estimated scf accuracy    <       0.00000242 Ry

     iteration #  8     ecut=    45.00 Ry     beta= 0.70
     Davidson diagonalization with overlap
     ethr =  8.07E-09,  avg # of iterations =  3.0

     negative rho (up, down):  6.373E-04 0.000E+00

     total cpu time spent up to now is       72.5 secs

     End of self-consistent calculation

          k = 0.0000 0.0000 0.0000 (  3819 PWs)   bands (ev):

   -27.2506 -27.1967 -21.6202 -18.2023 -12.1465  -9.3483  -6.1624  -5.6250
    -5.5784  -5.3541  -5.3101  -3.1089  -3.0623  -1.8815  -1.8432   2.0128
     4.6984   4.8609   5.0056

     occupation numbers 
     1.0000   1.0000   1.0000   1.0000   1.0000   1.0000   1.0000   1.0000
     1.0000   1.0000   1.0000   1.0000   1.0000   1.0000   1.0000   0.0000
     0.0000   0.0000   0.0000

          k = 0.0000 0.0955-0.0000 (  3777 PWs)   bands (ev):

   -27.1838 -27.1333 -21.4724 -18.0765 -12.0484  -9.3178  -6.5123  -5.9665
    -5.7777  -5.6522  -5.4199  -3.5587  -3.2413  -2.4201  -2.0294   2.3662
     4.5566   5.3501   5.3971

     occupation numbers 
     1.0000   1.0000   1.0000   1.0000   1.0000   1.0000   1.0000   1.0000
     1.0000   1.0000   1.0000   1.0000   1.0000   1.0000   1.0000   0.0000
     0.0000   0.0000   0.0000

          k = 0.0000 0.1909-0.0000 (  3793 PWs)   bands (ev):

   -26.9974 -26.9560 -21.0299 -17.7008 -11.7722  -9.2674  -7.7419  -7.1136
    -6.2908  -6.1085  -5.7255  -4.2787  -3.5913  -3.5577  -2.4619   2.9273
     4.3287   6.1191   6.1391

     occupation numbers 
     1.0000   1.0000   1.0000   1.0000   1.0000   1.0000   1.0000   1.0000
     1.0000   1.0000   1.0000   1.0000   1.0000   1.0000   1.0000   0.0000
     0.0000   0.0000   0.0000

          k = 0.0000 0.2864-0.0000 (  3812 PWs)   bands (ev):

   -26.7323 -26.7032 -20.2956 -17.0817 -11.4165  -9.8470  -9.1717  -8.3902
    -6.9331  -6.7379  -6.1494  -4.9666  -4.5389  -3.9139  -2.9176   3.1118
     4.3332   6.2024   7.0989

     occupation numbers 
     1.0000   1.0000   1.0000   1.0000   1.0000   1.0000   1.0000   1.0000
     1.0000   1.0000   1.0000   1.0000   1.0000   1.0000   1.0000   0.0000
     0.0000   0.0000   0.0000

          k = 0.0000 0.3819-0.0000 (  3830 PWs)   bands (ev):

   -26.4538 -26.4367 -19.2796 -16.2353 -12.1839 -10.8283 -10.2163  -8.8188
    -7.5088  -7.3356  -6.5658  -5.8935  -4.9170  -4.1578  -3.2706   3.0171
     4.5019   5.8793   7.5097

     occupation numbers 
     1.0000   1.0000   1.0000   1.0000   1.0000   1.0000   1.0000   1.0000
     1.0000   1.0000   1.0000   1.0000   1.0000   1.0000   1.0000   0.0000
     0.0000   0.0000   0.0000

          k = 0.0000 0.4773-0.0000 (  3821 PWs)   bands (ev):

   -26.2401 -26.2323 -18.0293 -15.2649 -13.9930 -12.1275 -10.0545  -9.0171
    -7.8935  -7.6687  -6.8613  -6.5499  -5.1400  -4.3108  -3.4865   3.0397
     4.3155   5.4312   7.7120

     occupation numbers 
     1.0000   1.0000   1.0000   1.0000   1.0000   1.0000   1.0000   1.0000
     1.0000   1.0000   1.0000   1.0000   1.0000   1.0000   1.0000   0.0000
     0.0000   0.0000   0.0000

          k =-0.0000-0.5728 0.0000 (  3830 PWs)   bands (ev):

   -26.1589 -26.1561 -17.0520 -15.5049 -14.0408 -13.2363  -9.7988  -9.1942
    -8.0276  -7.7491  -6.9671  -6.7831  -5.2273  -4.3633  -3.5588   3.1557
     3.9919   5.3653   8.0547

     occupation numbers 
     1.0000   1.0000   1.0000   1.0000   1.0000   1.0000   1.0000   1.0000
     1.0000   1.0000   1.0000   1.0000   1.0000   1.0000   1.0000   0.0000
     0.0000   0.0000   0.0000

          k = 0.0833-0.0481-0.0000 (  3786 PWs)   bands (ev):

   -27.1821 -27.1316 -21.4698 -18.0741 -12.0461  -9.3166  -6.4939  -5.9333
    -5.8304  -5.6031  -5.4647  -3.5146  -3.2897  -2.3819  -2.0723   2.3545
     4.5485   5.2624   5.4144

     occupation numbers 
     1.0000   1.0000   1.0000   1.0000   1.0000   1.0000   1.0000   1.0000
     1.0000   1.0000   1.0000   1.0000   1.0000   1.0000   1.0000   0.0000
     0.0000   0.0000   0.0000

          k = 0.0833 0.0474-0.0000 (  3781 PWs)   bands (ev):

   -27.1830 -27.1325 -21.4711 -18.0753 -12.0473  -9.3172  -6.5023  -5.9501
    -5.8058  -5.6260  -5.4426  -3.5362  -3.2662  -2.3999  -2.0519   2.3599
     4.5526   5.2922   5.4152

     occupation numbers 
     1.0000   1.0000   1.0000   1.0000   1.0000   1.0000   1.0000   1.0000
     1.0000   1.0000   1.0000   1.0000   1.0000   1.0000   1.0000   0.0000
     0.0000   0.0000   0.0000

          k = 0.0833 0.1428-0.0000 (  3749 PWs)   bands (ev):

   -27.0571 -27.0128 -21.1772 -17.8256 -11.8606  -9.2734  -7.2163  -6.6479
    -6.3772  -5.9961  -5.6030  -3.9642  -3.7628  -2.9857  -2.5161   2.8734
     4.5718   5.6829   5.9295

     occupation numbers 
     1.0000   1.0000   1.0000   1.0000   1.0000   1.0000   1.0000   1.0000
     1.0000   1.0000   1.0000   1.0000   1.0000   1.0000   1.0000   0.0000
     0.0000   0.0000   0.0000

          k = 0.0833 0.2383-0.0000 (  3795 PWs)   bands (ev):

   -26.8315 -26.7978 -20.5898 -17.3289 -11.5309  -9.3243  -8.6460  -7.8346
    -7.1186  -6.6201  -5.9497  -4.6514  -4.2822  -3.7316  -3.0562   3.4621
     4.5259   6.3443   6.7785

     occupation numbers 
     1.0000   1.0000   1.0000   1.0000   1.0000   1.0000   1.0000   1.0000
     1.0000   1.0000   1.0000   1.0000   1.0000   1.0000   1.0000   0.0000
     0.0000   0.0000   0.0000

          k = 0.0833 0.3338-0.0000 (  3824 PWs)   bands (ev):

   -26.5588 -26.5371 -19.7142 -16.5946 -11.4236 -10.5085  -9.6853  -8.6803
    -7.8012  -7.2304  -6.4995  -5.4850  -4.7513  -4.1612  -3.4407   3.6360
     4.6579   6.5477   7.4359

     occupation numbers 
     1.0000   1.0000   1.0000   1.0000   1.0000   1.0000   1.0000   1.0000
     1.0000   1.0000   1.0000   1.0000   1.0000   1.0000   1.0000   0.0000
     0.0000   0.0000   0.0000

          k = 0.0833 0.4292-0.0000 (  3840 PWs)   bands (ev):

   -26.3108 -26.2995 -18.5720 -15.6552 -13.0396 -11.3489 -10.1728  -8.9355
    -8.2660  -7.6205  -7.0407  -6.2052  -5.1081  -4.3476  -3.7009   3.6252
     4.7538   6.1054   7.7894

     occupation numbers 
     1.0000   1.0000   1.0000   1.0000   1.0000   1.0000   1.0000   1.0000
     1.0000   1.0000   1.0000   1.0000   1.0000   1.0000   1.0000   0.0000
     0.0000   0.0000   0.0000

          k = 0.0833-0.6209 0.0000 (  3840 PWs)   bands (ev):

   -26.1611 -26.1569 -17.2964 -15.1094 -14.1977 -12.7551  -9.8380  -9.1571
    -8.5166  -7.7471  -7.3615  -6.6158  -5.3015  -4.4356  -3.8346   3.8123
     4.3281   5.9393   8.0058

     occupation numbers 
     1.0000   1.0000   1.0000   1.0000   1.0000   1.0000   1.0000   1.0000
     1.0000   1.0000   1.0000   1.0000   1.0000   1.0000   1.0000   0.0000
     0.0000   0.0000   0.0000

          k = 0.0833-0.5255 0.0000 (  3846 PWs)   bands (ev):

   -26.1601 -26.1559 -17.2863 -15.1161 -14.1931 -12.7690  -9.8333  -9.1640
    -8.5068  -7.7571  -7.3484  -6.6186  -5.3019  -4.4349  -3.8313   3.8099
     4.3218   5.9351   8.0022

     occupation numbers 
     1.0000   1.0000   1.0000   1.0000   1.0000   1.0000   1.0000   1.0000
     1.0000   1.0000   1.0000   1.0000   1.0000   1.0000   1.0000   0.0000
     0.0000   0.0000   0.0000

          k = 0.0833-0.4300 0.0000 (  3845 PWs)   bands (ev):

   -26.3080 -26.2967 -18.5610 -15.6458 -13.0575 -11.3653 -10.1703  -8.9410
    -8.2444  -7.6372  -7.0146  -6.2135  -5.1101  -4.3446  -3.6922   3.6139
     4.7432   6.0932   7.7771

     occupation numbers 
     1.0000   1.0000   1.0000   1.0000   1.0000   1.0000   1.0000   1.0000
     1.0000   1.0000   1.0000   1.0000   1.0000   1.0000   1.0000   0.0000
     0.0000   0.0000   0.0000

          k = 0.0833-0.3345 0.0000 (  3825 PWs)   bands (ev):

   -26.5552 -26.5336 -19.7054 -16.5867 -11.4290 -10.5196  -9.7018  -8.6831
    -7.7810  -7.2374  -6.4722  -5.4958  -4.7588  -4.1546  -3.4282   3.6190
     4.6426   6.5372   7.4090

     occupation numbers 
     1.0000   1.0000   1.0000   1.0000   1.0000   1.0000   1.0000   1.0000
     1.0000   1.0000   1.0000   1.0000   1.0000   1.0000   1.0000   0.0000
     0.0000   0.0000   0.0000

          k = 0.0833-0.2391 0.0000 (  3803 PWs)   bands (ev):

   -26.8281 -26.7945 -20.5834 -17.3232 -11.5261  -9.3264  -8.6653  -7.8402
    -7.1084  -6.6200  -5.9270  -4.6598  -4.2879  -3.7326  -3.0416   3.4462
     4.5001   6.3393   6.7725

     occupation numbers 
     1.0000   1.0000   1.0000   1.0000   1.0000   1.0000   1.0000   1.0000
     1.0000   1.0000   1.0000   1.0000   1.0000   1.0000   1.0000   0.0000
     0.0000   0.0000   0.0000

          k = 0.0833-0.1436 0.0000 (  3767 PWs)   bands (ev):

   -27.0547 -27.0105 -21.1734 -17.8222 -11.8573  -9.2720  -7.2157  -6.6402
    -6.3840  -6.0046  -5.5914  -3.9661  -3.7608  -2.9910  -2.5146   2.8583
     4.5478   5.6537   5.9364

     occupation numbers 
     1.0000   1.0000   1.0000   1.0000   1.0000   1.0000   1.0000   1.0000
     1.0000   1.0000   1.0000   1.0000   1.0000   1.0000   1.0000   0.0000
     0.0000   0.0000   0.0000

          k = 0.1667-0.0962-0.0000 (  3792 PWs)   bands (ev):

   -26.9909 -26.9496 -21.0195 -17.6913 -11.7628  -9.2625  -7.6640  -7.0815
    -6.3740  -6.0729  -5.7898  -4.2419  -3.6512  -3.5225  -2.5240   2.8859
     4.2912   6.0090   6.1319

     occupation numbers 
     1.0000   1.0000   1.0000   1.0000   1.0000   1.0000   1.0000   1.0000
     1.0000   1.0000   1.0000   1.0000   1.0000   1.0000   1.0000   0.0000
     0.0000   0.0000   0.0000

          k = 0.1667-0.0008-0.0000 (  3773 PWs)   bands (ev):

   -27.0523 -27.0081 -21.1694 -17.8186 -11.8539  -9.2706  -7.2107  -6.6292
    -6.3944  -6.0129  -5.5833  -3.9619  -3.7647  -2.9934  -2.5172   2.8417
     4.5202   5.6283   5.9429

     occupation numbers 
     1.0000   1.0000   1.0000   1.0000   1.0000   1.0000   1.0000   1.0000
     1.0000   1.0000   1.0000   1.0000   1.0000   1.0000   1.0000   0.0000
     0.0000   0.0000   0.0000

          k = 0.1667 0.0947-0.0000 (  3801 PWs)   bands (ev):

   -26.9941 -26.9528 -21.0247 -17.6960 -11.7674  -9.2649  -7.7016  -7.0973
    -6.3332  -6.0905  -5.7582  -4.2598  -3.6224  -3.5393  -2.4939   2.9064
     4.3099   6.0638   6.1260

     occupation numbers 
     1.0000   1.0000   1.0000   1.0000   1.0000   1.0000   1.0000   1.0000
     1.0000   1.0000   1.0000   1.0000   1.0000   1.0000   1.0000   0.0000
     0.0000   0.0000   0.0000

          k = 0.1667 0.1902-0.0000 (  3803 PWs)   bands (ev):

   -26.8290 -26.7954 -20.5858 -17.3252 -11.5268  -9.3189  -8.6045  -7.8233
    -7.1547  -6.6285  -5.9693  -4.6355  -4.2881  -3.7323  -3.0889   3.4416
     4.5263   6.3033   6.7531

     occupation numbers 
     1.0000   1.0000   1.0000   1.0000   1.0000   1.0000   1.0000   1.0000
     1.0000   1.0000   1.0000   1.0000   1.0000   1.0000   1.0000   0.0000
     0.0000   0.0000   0.0000

          k = 0.1667 0.2857-0.0000 (  3832 PWs)   bands (ev):

   -26.5950 -26.5716 -19.8561 -16.7117 -11.2738  -9.7555  -9.6965  -8.4721
    -8.1465  -7.6008  -6.3690  -5.3877  -4.5462  -4.0682  -3.8753   4.3488
     4.7225   6.7932   7.8497

     occupation numbers 
     1.0000   1.0000   1.0000   1.0000   1.0000   1.0000   1.0000   1.0000
     1.0000   1.0000   1.0000   1.0000   1.0000   1.0000   1.0000   0.0000
     0.0000   0.0000   0.0000

          k = 0.1667 0.3811-0.0000 (  3841 PWs)   bands (ev):

   -26.3509 -26.3373 -18.8475 -15.8710 -11.9960 -10.8378 -10.0751  -9.1161
    -8.7896  -8.1641  -6.9897  -5.9821  -4.9831  -4.4417  -4.1997   4.5715
     5.1893   7.2556   7.7472

     occupation numbers 
     1.0000   1.0000   1.0000   1.0000   1.0000   1.0000   1.0000   1.0000
     1.0000   1.0000   1.0000   1.0000   1.0000   1.0000   1.0000   0.0000
     0.0000   0.0000   0.0000

          k = 0.1667-0.6690 0.0000 (  3843 PWs)   bands (ev):

   -26.1644 -26.1583 -17.6113 -14.9011 -13.6381 -11.9794  -9.9770  -9.6220
    -9.0678  -8.2203  -7.5941  -6.3447  -5.4292  -4.5435  -4.4010   4.4541
     5.5906   7.1197   7.6322

     occupation numbers 
     1.0000   1.0000   1.0000   1.0000   1.0000   1.0000   1.0000   1.0000
     1.0000   1.0000   1.0000   1.0000   1.0000   1.0000   1.0000   0.0000
     0.0000   0.0000   0.0000

          k = 0.1667-0.5736 0.0000 (  3843 PWs)   bands (ev):

   -26.0926 -26.0904 -16.6454 -15.0950 -13.6426 -13.0464 -10.1360  -9.3974
    -9.2352  -8.2253  -7.8523  -6.4773  -5.5898  -4.5445  -4.4997   4.4217
     5.5912   7.1632   7.6051

     occupation numbers 
     1.0000   1.0000   1.0000   1.0000   1.0000   1.0000   1.0000   1.0000
     1.0000   1.0000   1.0000   1.0000   1.0000   1.0000   1.0000   0.0000
     0.0000   0.0000   0.0000

          k = 0.1667-0.4781 0.0000 (  3839 PWs)   bands (ev):

   -26.1605 -26.1545 -17.5878 -14.8846 -13.6653 -12.0127  -9.9604  -9.6189
    -9.0625  -8.2300  -7.5733  -6.3586  -5.4303  -4.5514  -4.3840   4.4481
     5.5882   7.0953   7.6410

     occupation numbers 
     1.0000   1.0000   1.0000   1.0000   1.0000   1.0000   1.0000   1.0000
     1.0000   1.0000   1.0000   1.0000   1.0000   1.0000   1.0000   0.0000
     0.0000   0.0000   0.0000

          k = 0.1667-0.3826 0.0000 (  3839 PWs)   bands (ev):

   -26.3444 -26.3310 -18.8273 -15.8530 -12.0267 -10.8586 -10.0807  -9.1086
    -8.7661  -8.1716  -6.9668  -5.9997  -4.9946  -4.4419  -4.1822   4.5606
     5.1763   7.2449   7.7199

     occupation numbers 
     1.0000   1.0000   1.0000   1.0000   1.0000   1.0000   1.0000   1.0000
     1.0000   1.0000   1.0000   1.0000   1.0000   1.0000   1.0000   0.0000
     0.0000   0.0000   0.0000

          k = 0.1667-0.2872 0.0000 (  3827 PWs)   bands (ev):

   -26.5880 -26.5648 -19.8408 -16.6978 -11.2658  -9.7741  -9.7097  -8.4580
    -8.1533  -7.6004  -6.3489  -5.3996  -4.5602  -4.0718  -3.8637   4.3259
     4.6972   6.7568   7.7691

     occupation numbers 
     1.0000   1.0000   1.0000   1.0000   1.0000   1.0000   1.0000   1.0000
     1.0000   1.0000   1.0000   1.0000   1.0000   1.0000   1.0000   0.0000
     0.0000   0.0000   0.0000

          k = 0.1667-0.1917-0.0000 (  3810 PWs)   bands (ev):

   -26.8233 -26.7898 -20.5755 -17.3159 -11.5181  -9.3160  -8.5854  -7.8166
    -7.1790  -6.6383  -5.9644  -4.6288  -4.2998  -3.7341  -3.1054   3.4033
     4.5008   6.2598   6.6975

     occupation numbers 
     1.0000   1.0000   1.0000   1.0000   1.0000   1.0000   1.0000   1.0000
     1.0000   1.0000   1.0000   1.0000   1.0000   1.0000   1.0000   0.0000
     0.0000   0.0000   0.0000

          k = 0.2500-0.1443-0.0000 (  3820 PWs)   bands (ev):

   -26.7188 -26.6899 -20.2719 -17.0598 -11.3914  -9.7860  -9.1184  -8.3560
    -7.0489  -6.7195  -6.2394  -4.9240  -4.5312  -3.9822  -2.9945   2.9899
     4.3227   6.0373   7.0918

     occupation numbers 
     1.0000   1.0000   1.0000   1.0000   1.0000   1.0000   1.0000   1.0000
     1.0000   1.0000   1.0000   1.0000   1.0000   1.0000   1.0000   0.0000
     0.0000   0.0000   0.0000

          k = 0.2500-0.0489-0.0000 (  3805 PWs)   bands (ev):

   -26.8198 -26.7863 -20.5690 -17.3100 -11.5131  -9.3176  -8.6040  -7.8203
    -7.1694  -6.6385  -5.9430  -4.6366  -4.3048  -3.7371  -3.0909   3.3853
     4.4729   6.2619   6.6594

     occupation numbers 
     1.0000   1.0000   1.0000   1.0000   1.0000   1.0000   1.0000   1.0000
     1.0000   1.0000   1.0000   1.0000   1.0000   1.0000   1.0000   0.0000
     0.0000   0.0000   0.0000

          k = 0.2500 0.0466-0.0000 (  3799 PWs)   bands (ev):

   -26.8221 -26.7886 -20.5729 -17.3136 -11.5170  -9.3226  -8.6426  -7.8326
    -7.1347  -6.6289  -5.9251  -4.6518  -4.2988  -3.7363  -3.0598   3.4077
     4.4725   6.3006   6.7014

     occupation numbers 
     1.0000   1.0000   1.0000   1.0000   1.0000   1.0000   1.0000   1.0000
     1.0000   1.0000   1.0000   1.0000   1.0000   1.0000   1.0000   0.0000
     0.0000   0.0000   0.0000

          k = 0.2500 0.1421-0.0000 (  3824 PWs)   bands (ev):

   -26.7255 -26.6964 -20.2836 -17.0706 -11.4036  -9.8156  -9.1452  -8.3730
    -6.9916  -6.7286  -6.1947  -4.9451  -4.5349  -3.9487  -2.9567   3.0514
     4.3287   6.1184   7.0958

     occupation numbers 
     1.0000   1.0000   1.0000   1.0000   1.0000   1.0000   1.0000   1.0000
     1.0000   1.0000   1.0000   1.0000   1.0000   1.0000   1.0000   0.0000
     0.0000   0.0000   0.0000

          k = 0.2500 0.2375-0.0000 (  3837 PWs)   bands (ev):

   -26.5528 -26.5312 -19.7034 -16.5841 -11.3975 -10.4753  -9.6634  -8.6660
    -7.8630  -7.2428  -6.5377  -5.4712  -4.7451  -4.1874  -3.4808   3.5738
     4.6824   6.4526   7.4016

     occupation numbers 
     1.0000   1.0000   1.0000   1.0000   1.0000   1.0000   1.0000   1.0000
     1.0000   1.0000   1.0000   1.0000   1.0000   1.0000   1.0000   0.0000
     0.0000   0.0000   0.0000

          k = 0.2500 0.3330-0.0000 (  3849 PWs)   bands (ev):

   -26.3473 -26.3337 -18.8404 -15.8635 -11.9637 -10.8236 -10.0756  -9.1317
    -8.8035  -8.1833  -7.0011  -5.9769  -4.9784  -4.4527  -4.2219   4.5449
     5.2061   7.2374   7.6428

     occupation numbers 
     1.0000   1.0000   1.0000   1.0000   1.0000   1.0000   1.0000   1.0000
     1.0000   1.0000   1.0000   1.0000   1.0000   1.0000   1.0000   0.0000
     0.0000   0.0000   0.0000

          k = 0.2500-0.7172 0.0000 (  3859 PWs)   bands (ev):

   -26.1636 -26.1567 -17.7240 -14.9421 -12.8456 -11.8504  -9.9953  -9.9618
    -9.5508  -8.4430  -7.5562  -6.2446  -5.2837  -4.9693  -4.4934   4.7490
     6.0091   6.9592   9.2367

     occupation numbers 
     1.0000   1.0000   1.0000   1.0000   1.0000   1.0000   1.0000   1.0000
     1.0000   1.0000   1.0000   1.0000   1.0000   1.0000   1.0000   0.0000
     0.0000   0.0000   0.0000

          k = 0.2500-0.6217 0.0000 (  3828 PWs)   bands (ev):

   -26.0536 -26.0512 -16.5064 -14.3356 -13.6521 -12.7150 -10.9586 -10.2338
    -9.1395  -8.5156  -8.0459  -6.2239  -5.7084  -5.1963  -4.5794   4.7869
     5.8951   7.6714   8.7763

     occupation numbers 
     1.0000   1.0000   1.0000   1.0000   1.0000   1.0000   1.0000   1.0000
     1.0000   1.0000   1.0000   1.0000   1.0000   1.0000   1.0000   0.0000
     0.0000   0.0000   0.0000

          k = 0.2500-0.5262 0.0000 (  3816 PWs)   bands (ev):

   -26.0507 -26.0484 -16.4757 -14.3579 -13.6226 -12.7614 -10.9539 -10.2270
    -9.1400  -8.5174  -8.0394  -6.2351  -5.7082  -5.1953  -4.5767   4.7841
     5.9003   7.6758   8.7572

     occupation numbers 
     1.0000   1.0000   1.0000   1.0000   1.0000   1.0000   1.0000   1.0000
     1.0000   1.0000   1.0000   1.0000   1.0000   1.0000   1.0000   0.0000
     0.0000   0.0000   0.0000

          k = 0.2500-0.4307 0.0000 (  3849 PWs)   bands (ev):

   -26.1561 -26.1493 -17.6898 -14.9096 -12.8822 -11.8811  -9.9922  -9.9455
    -9.5593  -8.4445  -7.5447  -6.2620  -5.2949  -4.9688  -4.4871   4.7426
     6.0215   6.9401   9.1450

     occupation numbers 
     1.0000   1.0000   1.0000   1.0000   1.0000   1.0000   1.0000   1.0000
     1.0000   1.0000   1.0000   1.0000   1.0000   1.0000   1.0000   0.0000
     0.0000   0.0000   0.0000

          k = 0.2500-0.3353-0.0000 (  3847 PWs)   bands (ev):

   -26.3375 -26.3240 -18.8131 -15.8381 -11.9629 -10.8320 -10.0814  -9.1369
    -8.7958  -8.2090  -6.9896  -5.9897  -4.9852  -4.4643  -4.2253   4.5021
     5.2120   7.2077   7.5123

     occupation numbers 
     1.0000   1.0000   1.0000   1.0000   1.0000   1.0000   1.0000   1.0000
     1.0000   1.0000   1.0000   1.0000   1.0000   1.0000   1.0000   0.0000
     0.0000   0.0000   0.0000

          k = 0.2500-0.2398-0.0000 (  3839 PWs)   bands (ev):

   -26.5434 -26.5219 -19.6838 -16.5661 -11.3774 -10.4539  -9.6594  -8.6543
    -7.9020  -7.2650  -6.5461  -5.4688  -4.7465  -4.2061  -3.5074   3.4920
     4.6896   6.3492   7.3405

     occupation numbers 
     1.0000   1.0000   1.0000   1.0000   1.0000   1.0000   1.0000   1.0000
     1.0000   1.0000   1.0000   1.0000   1.0000   1.0000   1.0000   0.0000
     0.0000   0.0000   0.0000

          k = 0.3333-0.1925-0.0000 (  3849 PWs)   bands (ev):

   -26.4329 -26.4160 -19.2363 -16.1933 -12.1117 -10.7704 -10.1893  -8.7922
    -7.6498  -7.3312  -6.6790  -5.8710  -4.9088  -4.2330  -3.3565   2.8345
     4.5055   5.7289   7.3777

     occupation numbers 
     1.0000   1.0000   1.0000   1.0000   1.0000   1.0000   1.0000   1.0000
     1.0000   1.0000   1.0000   1.0000   1.0000   1.0000   1.0000   0.0000
     0.0000   0.0000   0.0000

          k = 0.3333-0.0970-0.0000 (  3830 PWs)   bands (ev):

   -26.5397 -26.5183 -19.6748 -16.5580 -11.3819 -10.4656  -9.6765  -8.6571
    -7.8801  -7.2727  -6.5188  -5.4799  -4.7541  -4.1997  -3.4945   3.4726
     4.6732   6.3378   7.3165

     occupation numbers 
     1.0000   1.0000   1.0000   1.0000   1.0000   1.0000   1.0000   1.0000
     1.0000   1.0000   1.0000   1.0000   1.0000   1.0000   1.0000   0.0000
     0.0000   0.0000   0.0000

          k = 0.3333-0.0015-0.0000 (  3827 PWs)   bands (ev):

   -26.5808 -26.5576 -19.8251 -16.6836 -11.2569  -9.7767  -9.7347  -8.4447
    -8.1622  -7.5997  -6.3300  -5.4112  -4.5739  -4.0745  -3.8547   4.3066
     4.6644   6.7247   7.7151

     occupation numbers 
     1.0000   1.0000   1.0000   1.0000   1.0000   1.0000   1.0000   1.0000
     1.0000   1.0000   1.0000   1.0000   1.0000   1.0000   1.0000   0.0000
     0.0000   0.0000   0.0000

          k = 0.3333 0.0940-0.0000 (  3825 PWs)   bands (ev):

   -26.5455 -26.5240 -19.6855 -16.5682 -11.4074 -10.4980  -9.6970  -8.6717
    -7.8208  -7.2577  -6.4831  -5.4930  -4.7602  -4.1744  -3.4554   3.5374
     4.6507   6.4307   7.3505

     occupation numbers 
     1.0000   1.0000   1.0000   1.0000   1.0000   1.0000   1.0000   1.0000
     1.0000   1.0000   1.0000   1.0000   1.0000   1.0000   1.0000   0.0000
     0.0000   0.0000   0.0000

          k = 0.3333 0.1894-0.0000 (  3831 PWs)   bands (ev):

   -26.4432 -26.4262 -19.2577 -16.2139 -12.1476 -10.7990 -10.2029  -8.8056
    -7.5795  -7.3337  -6.6222  -5.8823  -4.9130  -4.1958  -3.3139   2.9265
     4.5068   5.8010   7.4419

     occupation numbers 
     1.0000   1.0000   1.0000   1.0000   1.0000   1.0000   1.0000   1.0000
     1.0000   1.0000   1.0000   1.0000   1.0000   1.0000   1.0000   0.0000
     0.0000   0.0000   0.0000

          k = 0.3333 0.2849-0.0000 (  3855 PWs)   bands (ev):

   -26.3010 -26.2897 -18.5502 -15.6313 -13.0039 -11.3148 -10.1639  -8.9264
    -8.3373  -7.6249  -7.0954  -6.1967  -5.1090  -4.3760  -3.7432   3.5449
     4.7782   6.0100   7.7128

     occupation numbers 
     1.0000   1.0000   1.0000   1.0000   1.0000   1.0000   1.0000   1.0000
     1.0000   1.0000   1.0000   1.0000   1.0000   1.0000   1.0000   0.0000
     0.0000   0.0000   0.0000

          k = 0.3333-0.7653 0.0000 (  3847 PWs)   bands (ev):

   -26.1571 -26.1509 -17.5912 -14.8680 -13.6228 -11.9559 -10.0028  -9.6390
    -9.0810  -8.2385  -7.6098  -6.3374  -5.4370  -4.5548  -4.4282   4.4581
     5.5475   7.0977   7.5222

     occupation numbers 
     1.0000   1.0000   1.0000   1.0000   1.0000   1.0000   1.0000   1.0000
     1.0000   1.0000   1.0000   1.0000   1.0000   1.0000   1.0000   0.0000
     0.0000   0.0000   0.0000

          k = 0.3333-0.6698 0.0000 (  3838 PWs)   bands (ev):

   -26.0498 -26.0474 -16.4887 -14.2774 -13.6979 -12.7066 -10.9677 -10.2626
    -9.1321  -8.5140  -8.0531  -6.2199  -5.7144  -5.2082  -4.5815   4.8032
     5.8734   7.6689   8.7290

     occupation numbers 
     1.0000   1.0000   1.0000   1.0000   1.0000   1.0000   1.0000   1.0000
     1.0000   1.0000   1.0000   1.0000   1.0000   1.0000   1.0000   0.0000
     0.0000   0.0000   0.0000

          k = 0.3333-0.5743 0.0000 (  3831 PWs)   bands (ev):

   -26.0076 -26.0076 -15.7890 -13.9763 -13.9686 -12.9012 -11.1456 -11.1369
    -8.6235  -8.5569  -8.5518  -5.8420  -5.8122  -5.8073  -4.6072   5.2552
     5.2845   8.4732   9.2524

     occupation numbers 
     1.0000   1.0000   1.0000   1.0000   1.0000   1.0000   1.0000   1.0000
     1.0000   1.0000   1.0000   1.0000   1.0000   1.0000   1.0000   0.0000
     0.0000   0.0000   0.0000

          k = 0.3333-0.4789-0.0000 (  3830 PWs)   bands (ev):

   -26.0433 -26.0409 -16.4400 -14.2443 -13.7125 -12.7447 -10.9716 -10.2838
    -9.1252  -8.5141  -8.0540  -6.2271  -5.7196  -5.2187  -4.5813   4.8163
     5.8574   7.6660   8.6542

     occupation numbers 
     1.0000   1.0000   1.0000   1.0000   1.0000   1.0000   1.0000   1.0000
     1.0000   1.0000   1.0000   1.0000   1.0000   1.0000   1.0000   0.0000
     0.0000   0.0000   0.0000

          k = 0.3333-0.3834-0.0000 (  3838 PWs)   bands (ev):

   -26.1461 -26.1401 -17.5482 -14.8184 -13.6352 -11.9673 -10.0134  -9.6494
    -9.0908  -8.2646  -7.6052  -6.3442  -5.4454  -4.5757  -4.4365   4.4509
     5.5005   7.0438   7.4291

     occupation numbers 
     1.0000   1.0000   1.0000   1.0000   1.0000   1.0000   1.0000   1.0000
     1.0000   1.0000   1.0000   1.0000   1.0000   1.0000   1.0000   0.0000
     0.0000   0.0000   0.0000

          k = 0.3333-0.2879-0.0000 (  3851 PWs)   bands (ev):

   -26.2888 -26.2776 -18.5179 -15.5988 -12.9860 -11.2982 -10.1522  -8.9247
    -8.3844  -7.6491  -7.1205  -6.1966  -5.1117  -4.4007  -3.7762   3.4481
     4.7925   5.9025   7.6293

     occupation numbers 
     1.0000   1.0000   1.0000   1.0000   1.0000   1.0000   1.0000   1.0000
     1.0000   1.0000   1.0000   1.0000   1.0000   1.0000   1.0000   0.0000
     0.0000   0.0000   0.0000

          k = 0.4167-0.2406-0.0000 (  3834 PWs)   bands (ev):

   -26.2134 -26.2057 -17.9559 -15.1714 -13.9709 -12.0795 -10.0238  -8.9898
    -8.0497  -7.6709  -6.9896  -6.5398  -5.1328  -4.3911  -3.5774   2.8157
     4.3480   5.2393   7.6134

     occupation numbers 
     1.0000   1.0000   1.0000   1.0000   1.0000   1.0000   1.0000   1.0000
     1.0000   1.0000   1.0000   1.0000   1.0000   1.0000   1.0000   0.0000
     0.0000   0.0000   0.0000

          k = 0.4167-0.1451-0.0000 (  3851 PWs)   bands (ev):

   -26.2859 -26.2747 -18.5066 -15.5888 -13.0045 -11.3153 -10.1495  -8.9311
    -8.3607  -7.6681  -7.0921  -6.2057  -5.1134  -4.3981  -3.7671   3.4349
     4.7810   5.8905   7.6208

     occupation numbers 
     1.0000   1.0000   1.0000   1.0000   1.0000   1.0000   1.0000   1.0000
     1.0000   1.0000   1.0000   1.0000   1.0000   1.0000   1.0000   0.0000
     0.0000   0.0000   0.0000

          k = 0.4167-0.0496-0.0000 (  3844 PWs)   bands (ev):

   -26.3308 -26.3175 -18.7925 -15.8193 -11.9933 -10.8530 -10.0858  -9.1293
    -8.7731  -8.2163  -6.9674  -6.0076  -4.9972  -4.4646  -4.2074   4.4911
     5.1950   7.2025   7.4822

     occupation numbers 
     1.0000   1.0000   1.0000   1.0000   1.0000   1.0000   1.0000   1.0000
     1.0000   1.0000   1.0000   1.0000   1.0000   1.0000   1.0000   0.0000
     0.0000   0.0000   0.0000

          k = 0.4167 0.0458-0.0000 (  3845 PWs)   bands (ev):

   -26.3342 -26.3209 -18.7995 -15.8266 -12.0249 -10.8655 -10.0856  -9.1164
    -8.7576  -8.1981  -6.9560  -6.0125  -5.0018  -4.4533  -4.1865   4.5233
     5.1759   7.2208   7.5862

     occupation numbers 
     1.0000   1.0000   1.0000   1.0000   1.0000   1.0000   1.0000   1.0000
     1.0000   1.0000   1.0000   1.0000   1.0000   1.0000   1.0000   0.0000
     0.0000   0.0000   0.0000

          k = 0.4167 0.1413-0.0000 (  3855 PWs)   bands (ev):

   -26.2953 -26.2841 -18.5279 -15.6119 -13.0403 -11.3483 -10.1586  -8.9383
    -8.2920  -7.6606  -7.0407  -6.2141  -5.1127  -4.3703  -3.7253   3.5203
     4.7562   5.9859   7.6922

     occupation numbers 
     1.0000   1.0000   1.0000   1.0000   1.0000   1.0000   1.0000   1.0000
     1.0000   1.0000   1.0000   1.0000   1.0000   1.0000   1.0000   0.0000
     0.0000   0.0000   0.0000

          k = 0.4167 0.2368-0.0000 (  3828 PWs)   bands (ev):

   -26.2265 -26.2188 -17.9922 -15.2173 -13.9826 -12.1035 -10.0392  -9.0035
    -7.9714  -7.6705  -6.9248  -6.5451  -5.1366  -4.3512  -3.5321   2.9287
     4.3324   5.3352   7.6601

     occupation numbers 
     1.0000   1.0000   1.0000   1.0000   1.0000   1.0000   1.0000   1.0000
     1.0000   1.0000   1.0000   1.0000   1.0000   1.0000   1.0000   0.0000
     0.0000   0.0000   0.0000

          k = 0.4167-0.8134 0.0000 (  3850 PWs)   bands (ev):

   -26.1484 -26.1442 -17.2539 -15.0501 -14.2034 -12.7353  -9.8272  -9.1469
    -8.5877  -7.7465  -7.4229  -6.6136  -5.3056  -4.4642  -3.8762   3.7147
     4.3322   5.8480   7.9499

     occupation numbers 
     1.0000   1.0000   1.0000   1.0000   1.0000   1.0000   1.0000   1.0000
     1.0000   1.0000   1.0000   1.0000   1.0000   1.0000   1.0000   0.0000
     0.0000   0.0000   0.0000

          k = 0.4167-0.7179 0.0000 (  3849 PWs)   bands (ev):

   -26.0824 -26.0801 -16.5915 -15.0647 -13.6270 -13.0554 -10.1762  -9.4087
    -9.2321  -8.2571  -7.8552  -6.4754  -5.6019  -4.5597  -4.5211   4.4476
     5.4927   7.1362   7.5185

     occupation numbers 
     1.0000   1.0000   1.0000   1.0000   1.0000   1.0000   1.0000   1.0000
     1.0000   1.0000   1.0000   1.0000   1.0000   1.0000   1.0000   0.0000
     0.0000   0.0000   0.0000

          k = 0.4167-0.6224-0.0000 (  3824 PWs)   bands (ev):

   -26.0440 -26.0417 -16.4256 -14.3282 -13.6323 -12.8009 -10.9586 -10.2489
    -9.1329  -8.5177  -8.0399  -6.2428  -5.7139  -5.2061  -4.5759   4.7982
     5.8830   7.6773   8.6929

     occupation numbers 
     1.0000   1.0000   1.0000   1.0000   1.0000   1.0000   1.0000   1.0000
     1.0000   1.0000   1.0000   1.0000   1.0000   1.0000   1.0000   0.0000
     0.0000   0.0000   0.0000

          k = 0.4167-0.5270-0.0000 (  3830 PWs)   bands (ev):

   -26.0404 -26.0380 -16.4076 -14.2737 -13.6756 -12.7926 -10.9673 -10.2770
    -9.1255  -8.5161  -8.0473  -6.2388  -5.7194  -5.2176  -4.5784   4.8141
     5.8616   7.6697   8.6375

     occupation numbers 
     1.0000   1.0000   1.0000   1.0000   1.0000   1.0000   1.0000   1.0000
     1.0000   1.0000   1.0000   1.0000   1.0000   1.0000   1.0000   0.0000
     0.0000   0.0000   0.0000

          k = 0.4167-0.4315-0.0000 (  3851 PWs)   bands (ev):

   -26.0725 -26.0702 -16.5376 -15.0373 -13.6067 -13.0672 -10.2168  -9.4217
    -9.2274  -8.2860  -7.8603  -6.4727  -5.6139  -4.5669  -4.5502   4.4734
     5.3898   7.1002   7.4337

     occupation numbers 
     1.0000   1.0000   1.0000   1.0000   1.0000   1.0000   1.0000   1.0000
     1.0000   1.0000   1.0000   1.0000   1.0000   1.0000   1.0000   0.0000
     0.0000   0.0000   0.0000

          k = 0.4167-0.3360-0.0000 (  3856 PWs)   bands (ev):

   -26.1351 -26.1309 -17.2018 -14.9990 -14.2031 -12.7295  -9.8120  -9.1452
    -8.6477  -7.7554  -7.4716  -6.6136  -5.3100  -4.4913  -3.9146   3.6031
     4.3409   5.7466   7.8965

     occupation numbers 
     1.0000   1.0000   1.0000   1.0000   1.0000   1.0000   1.0000   1.0000
     1.0000   1.0000   1.0000   1.0000   1.0000   1.0000   1.0000   0.0000
     0.0000   0.0000   0.0000

          k =-0.5000 0.2887 0.0000 (  3852 PWs)   bands (ev):

   -26.1301 -26.1272 -16.9310 -15.4400 -13.9908 -13.2330  -9.7589  -9.1715
    -8.1887  -7.7519  -7.1006  -6.7769  -5.2210  -4.4453  -3.6514   2.8925
     4.0458   5.1602   8.0275

     occupation numbers 
     1.0000   1.0000   1.0000   1.0000   1.0000   1.0000   1.0000   1.0000
     1.0000   1.0000   1.0000   1.0000   1.0000   1.0000   1.0000   0.0000
     0.0000   0.0000   0.0000

          k =-0.5000 0.3841 0.0000 (  3852 PWs)   bands (ev):

   -26.1340 -26.1298 -17.1911 -15.0071 -14.1970 -12.7442  -9.8067  -9.1538
    -8.6364  -7.7693  -7.4543  -6.6168  -5.3103  -4.4907  -3.9111   3.5993
     4.3354   5.7422   7.8965

     occupation numbers 
     1.0000   1.0000   1.0000   1.0000   1.0000   1.0000   1.0000   1.0000
     1.0000   1.0000   1.0000   1.0000   1.0000   1.0000   1.0000   0.0000
     0.0000   0.0000   0.0000

          k =-0.5000 0.4796 0.0000 (  3839 PWs)   bands (ev):

   -26.1421 -26.1361 -17.5239 -14.7992 -13.6651 -12.0019  -9.9958  -9.6452
    -9.0870  -8.2732  -7.5851  -6.3589  -5.4463  -4.5845  -4.4184   4.4453
     5.4932   7.0196   7.4399

     occupation numbers 
     1.0000   1.0000   1.0000   1.0000   1.0000   1.0000   1.0000   1.0000
     1.0000   1.0000   1.0000   1.0000   1.0000   1.0000   1.0000   0.0000
     0.0000   0.0000   0.0000

          k =-0.5000 0.5751 0.0000 (  3843 PWs)   bands (ev):

   -26.1483 -26.1416 -17.6547 -14.8747 -12.9191 -11.9125  -9.9786  -9.9411
    -9.5677  -8.4460  -7.5329  -6.2797  -5.3065  -4.9685  -4.4804   4.7381
     6.0309   6.9222   9.0855

     occupation numbers 
     1.0000   1.0000   1.0000   1.0000   1.0000   1.0000   1.0000   1.0000
     1.0000   1.0000   1.0000   1.0000   1.0000   1.0000   1.0000   0.0000
     0.0000   0.0000   0.0000

          k =-0.5000 0.6706 0.0000 (  3848 PWs)   bands (ev):

   -26.1491 -26.1432 -17.5436 -14.8323 -13.6798 -12.0239  -9.9686  -9.6318
    -9.0719  -8.2568  -7.5689  -6.3660  -5.4390  -4.5717  -4.3930   4.4465
     5.5378   7.0489   7.5423

     occupation numbers 
     1.0000   1.0000   1.0000   1.0000   1.0000   1.0000   1.0000   1.0000
     1.0000   1.0000   1.0000   1.0000   1.0000   1.0000   1.0000   0.0000
     0.0000   0.0000   0.0000

          k =-0.5000 0.7660 0.0000 (  3855 PWs)   bands (ev):

   -26.1462 -26.1421 -17.2330 -15.0648 -14.1927 -12.7638  -9.8173  -9.1622
    -8.5668  -7.7697  -7.3932  -6.6197  -5.3063  -4.4629  -3.8695   3.7084
     4.3207   5.8394   7.9465

     occupation numbers 
     1.0000   1.0000   1.0000   1.0000   1.0000   1.0000   1.0000   1.0000
     1.0000   1.0000   1.0000   1.0000   1.0000   1.0000   1.0000   0.0000
     0.0000   0.0000   0.0000

          k =-0.5000-0.2841 0.0001 (  3830 PWs)   bands (ev):

   -26.1442 -26.1413 -16.9911 -15.4714 -14.0168 -13.2345  -9.7788  -9.1829
    -8.1078  -7.7514  -7.0330  -6.7803  -5.2244  -4.4045  -3.6051   3.0239
     4.0193   5.2645   8.0381

     occupation numbers 
     1.0000   1.0000   1.0000   1.0000   1.0000   1.0000   1.0000   1.0000
     1.0000   1.0000   1.0000   1.0000   1.0000   1.0000   1.0000   0.0000
     0.0000   0.0000   0.0000

     the Fermi energy is     0.3987 ev

!    total energy              =    -189.94102182 Ry
     Harris-Foulkes estimate   =    -189.94102191 Ry
     estimated scf accuracy    <       0.00000011 Ry

     total all-electron energy =      -701.913136 Ry

     The total energy is the sum of the following terms:

     one-electron contribution =   -1541.65508963 Ry
     hartree contribution      =     780.59959723 Ry
     xc contribution           =     -37.25388704 Ry
     ewald contribution        =     653.36687349 Ry
     one-center paw contrib.   =     -44.99851587 Ry
      -> PAW hartree energy AE =     118.41295773 Ry
      -> PAW hartree energy PS =    -118.33286235 Ry
      -> PAW xc energy AE      =     -80.67335044 Ry
      -> PAW xc energy PS      =      35.59473919 Ry
      -> total E_H with PAW    =     780.67969262 Ry
      -> total E_XC with PAW   =     -82.33249829 Ry
     smearing contrib. (-TS)   =      -0.00000000 Ry

     convergence has been achieved in   8 iterations

     negative rho (up, down):  6.373E-04 0.000E+00

     Forces acting on atoms (cartesian axes, Ry/au):

     atom    1 type  1   force =     0.00051524   -0.00075813   -0.01074086
     atom    2 type  1   force =    -0.00065683    0.00099407    0.00216512
     atom    3 type  1   force =    -0.00051780    0.00075602    0.01072969
     atom    4 type  1   force =     0.00065709   -0.00099315   -0.00222316
     atom    5 type  2   force =     0.00006322   -0.00010260    0.01640526
     atom    6 type  2   force =    -0.00006093    0.00010379   -0.01633604
     The non-local contrib.  to forces
     atom    1 type  1   force =     0.00270127   -0.00461987   -0.40979095
     atom    2 type  1   force =    -0.00259935    0.00441260    0.09518345
     atom    3 type  1   force =    -0.00270180    0.00461894    0.40980830
     atom    4 type  1   force =     0.00259603   -0.00441534   -0.09517573
     atom    5 type  2   force =    -0.00049881    0.00095944    3.17764788
     atom    6 type  2   force =     0.00052507   -0.00094334   -3.17760422
     The ionic contribution  to forces
     atom    1 type  1   force =     0.02750407   -0.04794747  -13.87217723
     atom    2 type  1   force =    -0.02847976    0.04982235   -9.52582799
     atom    3 type  1   force =    -0.02746476    0.04796890   13.87233877
     atom    4 type  1   force =     0.02847025   -0.04982646    9.52580695
     atom    5 type  2   force =     0.00299160   -0.00541838  -68.39326207
     atom    6 type  2   force =    -0.00302139    0.00540107   68.39312157
     The local contribution  to forces
     atom    1 type  1   force =    -0.02951309    0.05151050   14.26280565
     atom    2 type  1   force =     0.03024436   -0.05292886    9.43522902
     atom    3 type  1   force =     0.02947455   -0.05153061  -14.26292149
     atom    4 type  1   force =    -0.03023392    0.05293395   -9.43511516
     atom    5 type  2   force =    -0.00243170    0.00436243   65.24264692
     atom    6 type  2   force =     0.00243861   -0.00435782  -65.24257472
     The core correction contribution to forces
     atom    1 type  1   force =    -0.00017800    0.00030134    0.00890866
     atom    2 type  1   force =     0.00017753   -0.00030965   -0.00197846
     atom    3 type  1   force =     0.00017555   -0.00030280   -0.00898737
     atom    4 type  1   force =    -0.00017431    0.00031347    0.00183706
     atom    5 type  2   force =     0.00000214   -0.00000470   -0.01026378
     atom    6 type  2   force =    -0.00000264    0.00000410    0.01026430
     The Hubbard contrib.    to forces
     atom    1 type  1   force =     0.00000000    0.00000000    0.00000000
     atom    2 type  1   force =     0.00000000    0.00000000    0.00000000
     atom    3 type  1   force =     0.00000000    0.00000000    0.00000000
     atom    4 type  1   force =     0.00000000    0.00000000    0.00000000
     atom    5 type  2   force =     0.00000000    0.00000000    0.00000000
     atom    6 type  2   force =     0.00000000    0.00000000    0.00000000
     The SCF correction term to forces
     atom    1 type  1   force =     0.00000134   -0.00000217   -0.00051785
     atom    2 type  1   force =     0.00000073   -0.00000193   -0.00047176
     atom    3 type  1   force =    -0.00000102    0.00000203    0.00046063
     atom    4 type  1   force =    -0.00000063    0.00000168    0.00039286
     atom    5 type  2   force =     0.00000032   -0.00000094   -0.00039455
     atom    6 type  2   force =    -0.00000025    0.00000022    0.00042617

     Total force =     0.027940     Total SCF correction =     0.001093


     Computing stress (Cartesian axis) and pressure


     negative rho (up, down):  6.373E-04 0.000E+00
          total   stress  (Ry/bohr**3)                   (kbar)     P=   -0.70
   0.00013623  -0.00003502  -0.00000159         20.04     -5.15     -0.23
  -0.00003502   0.00001462   0.00000233         -5.15      2.15      0.34
  -0.00000159   0.00000233  -0.00016506         -0.23      0.34    -24.28

     kinetic stress (kbar)   9444.32     -5.18      0.93
                               -5.18   9426.13     -1.69
                                0.93     -1.69   8548.86

     local   stress (kbar)-301042.98     29.80     19.31
                               29.80-300936.67    -34.06
                               19.31    -34.06 290586.03

     nonloc. stress (kbar)   3222.04     -0.15     -0.29
                               -0.15   3221.54      0.50
                               -0.29      0.50   2949.71

     hartree stress (kbar) 148396.54     -9.94     -4.62
                               -9.94 148360.79      8.20
                               -4.62      8.20-143819.86

     exc-cor stress (kbar)  -1162.66     -0.03     -0.02
                               -0.03  -1162.77      0.04
                               -0.02      0.04  -1159.69

     corecor stress (kbar)   -964.04      0.10      0.05
                                0.10   -963.70     -0.09
                                0.05     -0.09   -955.33

     ewald   stress (kbar) 142126.82    -19.75    -15.58
                              -19.75 142056.82     27.44
                              -15.58     27.44-156174.01

     hubbard stress (kbar)      0.00      0.00      0.00
                                0.00      0.00      0.00
                                0.00      0.00      0.00

     london  stress (kbar)      0.00      0.00      0.00
                                0.00      0.00      0.00
                                0.00      0.00      0.00

     DFT-D3  stress (kbar)      0.00      0.00      0.00
                                0.00      0.00      0.00
                                0.00      0.00      0.00

     XDM     stress (kbar)      0.00      0.00      0.00
                                0.00      0.00      0.00
                                0.00      0.00      0.00

     dft-nl  stress (kbar)      0.00      0.00      0.00
                                0.00      0.00      0.00
                                0.00      0.00      0.00

     TS-vdW  stress (kbar)      0.00      0.00      0.00
                                0.00      0.00      0.00
                                0.00      0.00      0.00

     3D-RISM stress (kbar)      0.00      0.00      0.00
                                0.00      0.00      0.00
                                0.00      0.00      0.00



     Writing output data file pwscf.save\

     init_run     :     15.05s CPU      7.89s WALL (       1 calls)
     electrons    :     98.91s CPU     62.49s WALL (       1 calls)
     forces       :      8.22s CPU      1.36s WALL (       1 calls)
     stress       :     20.23s CPU      4.55s WALL (       1 calls)

     Called by init_run:
     wfcinit      :      4.59s CPU      3.17s WALL (       1 calls)
     wfcinit:atom :      0.11s CPU      0.08s WALL (      74 calls)
     wfcinit:wfcr :      3.48s CPU      2.38s WALL (      74 calls)
     potinit      :      4.34s CPU      0.65s WALL (       1 calls)
     hinit0       :      6.06s CPU      3.96s WALL (       1 calls)

     Called by electrons:
     c_bands      :     78.03s CPU     50.85s WALL (       8 calls)
     sum_band     :     16.48s CPU      9.48s WALL (       8 calls)
     v_of_rho     :      1.16s CPU      0.52s WALL (       9 calls)
     v_h          :      0.06s CPU      0.06s WALL (       9 calls)
     v_xc         :      1.38s CPU      0.57s WALL (      11 calls)
     newd         :      0.86s CPU      0.56s WALL (       9 calls)
     PAW_pot      :      2.50s CPU      1.22s WALL (       9 calls)
     mix_rho      :      0.19s CPU      0.08s WALL (       8 calls)

     Called by c_bands:
     init_us_2    :      1.73s CPU      0.85s WALL (    1406 calls)
     cegterg      :     74.70s CPU     49.02s WALL (     592 calls)

     Called by sum_band:
     sum_band:bec :      0.16s CPU      0.23s WALL (     592 calls)
     addusdens    :      1.23s CPU      0.72s WALL (       8 calls)

     Called by *egterg:
     h_psi        :     70.62s CPU     42.81s WALL (    2731 calls)
     s_psi        :      1.80s CPU      1.34s WALL (    2731 calls)
     g_psi        :      0.45s CPU      0.28s WALL (    2065 calls)
     cdiaghg      :      1.36s CPU      1.18s WALL (    2657 calls)
     cegterg:over :      1.70s CPU      2.16s WALL (    2065 calls)
     cegterg:upda :      0.67s CPU      1.23s WALL (    2065 calls)
     cegterg:last :      0.14s CPU      0.25s WALL (     595 calls)

     Called by h_psi:
     h_psi:pot    :     69.67s CPU     41.66s WALL (    2731 calls)
     h_psi:calbec :      4.59s CPU      2.19s WALL (    2731 calls)
     vloc_psi     :     63.67s CPU     38.18s WALL (    2731 calls)
     add_vuspsi   :      1.38s CPU      1.28s WALL (    2731 calls)

     General routines
     calbec       :      6.41s CPU      3.06s WALL (    3693 calls)
     fft          :      0.25s CPU      0.08s WALL (     140 calls)
     ffts         :      0.06s CPU      0.01s WALL (      17 calls)
     fftw         :     36.41s CPU     20.68s WALL (   78276 calls)
     interpolate  :      0.03s CPU      0.01s WALL (       9 calls)

     Parallel routines

     PAW routines
     PAW_pot      :      2.50s CPU      1.22s WALL (       9 calls)

     PWSCF        :   2m23.94s CPU   1m18.87s WALL


   This run was terminated on:  14:17: 1   1Dec2024            

=------------------------------------------------------------------------------=
   JOB DONE.
=------------------------------------------------------------------------------=
