
     Program PWSCF v.6.4.1 starts on  1Dec2024 at 14:19:42 

     This program is part of the open-source Quantum ESPRESSO suite
     for quantum simulation of materials; please cite
         "P. Giannozzi et al., J. Phys.:Condens. Matter 21 395502 (2009);
         "P. Giannozzi et al., J. Phys.:Condens. Matter 29 465901 (2017);
          URL http://www.quantum-espresso.org", 
     in publications or presentations arising from this work. More details at
     http://www.quantum-espresso.org/quote

     Parallel version (MPI & OpenMP), running on      12 processor cores
     Number of MPI processes:                 1
     Threads/MPI process:                    12

     MPI processes distributed on     1 nodes
     Waiting for input...
     Reading input from standard input
Warning: card &IONS ignored
Warning: card ION_DYNAMICS = 'BFGS' ignored
Warning: card / ignored
Warning: card &CELL ignored
Warning: card CELL_DOFREE = 'ALL' ignored
Warning: card CELL_DYNAMICS = 'BFGS' ignored
Warning: card PRESS = 0.0 ignored
Warning: card PRESS_CONV_THR = 0.5 ignored
Warning: card / ignored

     Current dimensions of program PWSCF are:
     Max number of different atomic species (ntypx) = 10
     Max number of k-points (npk) =  40000
     Max angular momentum in pseudopotentials (lmaxx) =  3
               file C.pbesol-n-kjpaw_psl.1.0.0.UPF: wavefunction(s)  2S 2P renormalized
               file F.pbesol-n-kjpaw_psl.1.0.0.UPF: wavefunction(s)  2S 2P renormalized

     Subspace diagonalization in iterative solution of the eigenvalue problem:
     a serial algorithm will be used


     G-vector sticks info
     --------------------
     sticks:   dense  smooth     PW     G-vecs:    dense   smooth      PW
     Sum         583     295     97                87835    31017    6243



     bravais-lattice index     =            0
     lattice parameter (alat)  =       4.8302  a.u.
     unit-cell volume          =     759.7479 (a.u.)^3
     number of atoms/cell      =            6
     number of atomic types    =            2
     number of electrons       =        30.00
     number of Kohn-Sham states=           19
     kinetic-energy cutoff     =      45.0000  Ry
     charge density cutoff     =     360.0000  Ry
     convergence threshold     =      1.0E-06
     mixing beta               =       0.7000
     number of iterations used =            8  plain     mixing
     Exchange-correlation      = SLA PW PSX PSC ( 1  4 10  8 0 0)

     celldm(1)=   4.830161  celldm(2)=   0.000000  celldm(3)=   0.000000
     celldm(4)=   0.000000  celldm(5)=   0.000000  celldm(6)=   0.000000

     crystal axes: (cart. coord. in units of alat)
               a(1) = (   1.000000  -0.000000   0.000000 )  
               a(2) = (   0.498044   0.862637   0.000000 )  
               a(3) = (   0.000638   0.000374   7.815492 )  

     reciprocal axes: (cart. coord. in units 2 pi/alat)
               b(1) = (  1.000000 -0.577350 -0.000054 )  
               b(2) = (  0.000000  1.159236 -0.000056 )  
               b(3) = ( -0.000000  0.000000  0.127951 )  


     PseudoPot. # 1 for C  read from file:
     .\C.pbesol-n-kjpaw_psl.1.0.0.UPF
     MD5 check sum: f9b2fe17d1f478429498b05d17159f9e
     Pseudo is Projector augmented-wave + core cor, Zval =  4.0
     Generated using "atomic" code by A. Dal Corso v.6.3
     Shape of augmentation charge: PSQ
     Using radial grid of 1073 points,  4 beta functions with: 
                l(1) =   0
                l(2) =   0
                l(3) =   1
                l(4) =   1
     Q(r) pseudized with 0 coefficients 


     PseudoPot. # 2 for F  read from file:
     .\F.pbesol-n-kjpaw_psl.1.0.0.UPF
     MD5 check sum: d939582bcd23f1ece12cfc4fab8d9d36
     Pseudo is Projector augmented-wave + core cor, Zval =  7.0
     Generated using "atomic" code by A. Dal Corso v.6.3
     Shape of augmentation charge: PSQ
     Using radial grid of 1105 points,  4 beta functions with: 
                l(1) =   0
                l(2) =   0
                l(3) =   1
                l(4) =   1
     Q(r) pseudized with 0 coefficients 


     atomic species   valence    mass     pseudopotential
        C              4.00    12.01070     C ( 1.00)
        F              7.00    18.99840     F ( 1.00)

     No symmetry found


                                    s                        frac. trans.

      isym =  1     identity                                     

 cryst.   s( 1) = (     1          0          0      )
                  (     0          1          0      )
                  (     0          0          1      )

 cart.    s( 1) = (  1.0000000  0.0000000 -0.0000000 )
                  (  0.0000000  1.0000000  0.0000000 )
                  (  0.0000000  0.0000000  1.0000000 )


   Cartesian axes

     site n.     atom                  positions (alat units)
         1           C   tau(   1) = (   0.0003506   0.0002062   3.9345407  )
         2           C   tau(   2) = (   0.4996992   0.2877522   4.1313281  )
         3           C   tau(   3) = (   0.9990433   0.5752945   4.9360600  )
         4           C   tau(   4) = (   0.4996952   0.2877487   4.7392684  )
         5           F   tau(   5) = (   0.0003440   0.0002012   3.3953546  )
         6           F   tau(   6) = (   0.9990460   0.5752973   5.4752494  )

   Crystallographic axes

     site n.     atom                  positions (cryst. coord.)
         1           C   tau(   1) = (  0.0000192  0.0000206  0.5034284  )
         2           C   tau(   2) = (  0.3333424  0.3333434  0.5286075  )
         3           C   tau(   3) = (  0.6666304  0.6666281  0.6315738  )
         4           C   tau(   4) = (  0.3333076  0.3333056  0.6063941  )
         5           F   tau(   5) = (  0.0000446  0.0000447  0.4344390  )
         6           F   tau(   6) = (  0.6666024  0.6666014  0.7005636  )

     number of k points=    74  Marzari-Vanderbilt smearing, width (Ry)=  0.0200
                       cart. coord. in units 2pi/alat
        k(    1) = (   0.0000000   0.0000000   0.0000000), wk =   0.0138889
        k(    2) = (   0.0000000   0.0966030  -0.0000046), wk =   0.0277778
        k(    3) = (   0.0000000   0.1932059  -0.0000093), wk =   0.0277778
        k(    4) = (   0.0000001   0.2898089  -0.0000139), wk =   0.0277778
        k(    5) = (   0.0000001   0.3864119  -0.0000185), wk =   0.0277778
        k(    6) = (   0.0000001   0.4830149  -0.0000231), wk =   0.0277778
        k(    7) = (  -0.0000001  -0.5796178   0.0000278), wk =   0.0138889
        k(    8) = (   0.0833333  -0.0481125  -0.0000045), wk =   0.0277778
        k(    9) = (   0.0833333   0.0484905  -0.0000091), wk =   0.0277778
        k(   10) = (   0.0833334   0.1450934  -0.0000137), wk =   0.0277778
        k(   11) = (   0.0833334   0.2416964  -0.0000184), wk =   0.0277778
        k(   12) = (   0.0833334   0.3382994  -0.0000230), wk =   0.0277778
        k(   13) = (   0.0833334   0.4349023  -0.0000276), wk =   0.0277778
        k(   14) = (   0.0833332  -0.6277303   0.0000233), wk =   0.0277778
        k(   15) = (   0.0833332  -0.5311274   0.0000186), wk =   0.0277778
        k(   16) = (   0.0833332  -0.4345244   0.0000140), wk =   0.0277778
        k(   17) = (   0.0833333  -0.3379214   0.0000094), wk =   0.0277778
        k(   18) = (   0.0833333  -0.2413184   0.0000048), wk =   0.0277778
        k(   19) = (   0.0833333  -0.1447155   0.0000001), wk =   0.0277778
        k(   20) = (   0.1666666  -0.0962250  -0.0000090), wk =   0.0277778
        k(   21) = (   0.1666667   0.0003780  -0.0000136), wk =   0.0277778
        k(   22) = (   0.1666667   0.0969809  -0.0000182), wk =   0.0277778
        k(   23) = (   0.1666667   0.1935839  -0.0000229), wk =   0.0277778
        k(   24) = (   0.1666667   0.2901869  -0.0000275), wk =   0.0277778
        k(   25) = (   0.1666667   0.3867898  -0.0000321), wk =   0.0277778
        k(   26) = (   0.1666665  -0.6758428   0.0000188), wk =   0.0277778
        k(   27) = (   0.1666665  -0.5792399   0.0000141), wk =   0.0277778
        k(   28) = (   0.1666666  -0.4826369   0.0000095), wk =   0.0277778
        k(   29) = (   0.1666666  -0.3860339   0.0000049), wk =   0.0277778
        k(   30) = (   0.1666666  -0.2894310   0.0000003), wk =   0.0277778
        k(   31) = (   0.1666666  -0.1928280  -0.0000044), wk =   0.0277778
        k(   32) = (   0.2500000  -0.1443375  -0.0000135), wk =   0.0277778
        k(   33) = (   0.2500000  -0.0477346  -0.0000181), wk =   0.0277778
        k(   34) = (   0.2500000   0.0488684  -0.0000227), wk =   0.0277778
        k(   35) = (   0.2500000   0.1454714  -0.0000274), wk =   0.0277778
        k(   36) = (   0.2500000   0.2420744  -0.0000320), wk =   0.0277778
        k(   37) = (   0.2500001   0.3386773  -0.0000366), wk =   0.0277778
        k(   38) = (   0.2499999  -0.7239553   0.0000143), wk =   0.0277778
        k(   39) = (   0.2499999  -0.6273524   0.0000096), wk =   0.0277778
        k(   40) = (   0.2499999  -0.5307494   0.0000050), wk =   0.0277778
        k(   41) = (   0.2499999  -0.4341464   0.0000004), wk =   0.0277778
        k(   42) = (   0.2499999  -0.3375435  -0.0000042), wk =   0.0277778
        k(   43) = (   0.2500000  -0.2409405  -0.0000089), wk =   0.0277778
        k(   44) = (   0.3333333  -0.1924500  -0.0000180), wk =   0.0277778
        k(   45) = (   0.3333333  -0.0958471  -0.0000226), wk =   0.0277778
        k(   46) = (   0.3333333   0.0007559  -0.0000272), wk =   0.0277778
        k(   47) = (   0.3333334   0.0973589  -0.0000319), wk =   0.0277778
        k(   48) = (   0.3333334   0.1939619  -0.0000365), wk =   0.0277778
        k(   49) = (   0.3333334   0.2905648  -0.0000411), wk =   0.0277778
        k(   50) = (   0.3333332  -0.7720678   0.0000098), wk =   0.0277778
        k(   51) = (   0.3333332  -0.6754649   0.0000051), wk =   0.0277778
        k(   52) = (   0.3333332  -0.5788619   0.0000005), wk =   0.0277778
        k(   53) = (   0.3333332  -0.4822589  -0.0000041), wk =   0.0277778
        k(   54) = (   0.3333333  -0.3856560  -0.0000087), wk =   0.0277778
        k(   55) = (   0.3333333  -0.2890530  -0.0000134), wk =   0.0277778
        k(   56) = (   0.4166666  -0.2405625  -0.0000225), wk =   0.0277778
        k(   57) = (   0.4166666  -0.1439596  -0.0000271), wk =   0.0277778
        k(   58) = (   0.4166667  -0.0473566  -0.0000317), wk =   0.0277778
        k(   59) = (   0.4166667   0.0492464  -0.0000364), wk =   0.0277778
        k(   60) = (   0.4166667   0.1458493  -0.0000410), wk =   0.0277778
        k(   61) = (   0.4166667   0.2424523  -0.0000456), wk =   0.0277778
        k(   62) = (   0.4166665  -0.8201804   0.0000053), wk =   0.0277778
        k(   63) = (   0.4166665  -0.7235774   0.0000006), wk =   0.0277778
        k(   64) = (   0.4166665  -0.6269744  -0.0000040), wk =   0.0277778
        k(   65) = (   0.4166666  -0.5303714  -0.0000086), wk =   0.0277778
        k(   66) = (   0.4166666  -0.4337685  -0.0000132), wk =   0.0277778
        k(   67) = (   0.4166666  -0.3371655  -0.0000179), wk =   0.0277778
        k(   68) = (  -0.4999999   0.2886750   0.0000270), wk =   0.0138889
        k(   69) = (  -0.4999999   0.3852780   0.0000224), wk =   0.0277778
        k(   70) = (  -0.4999999   0.4818810   0.0000177), wk =   0.0277778
        k(   71) = (  -0.4999999   0.5784840   0.0000131), wk =   0.0277778
        k(   72) = (  -0.4999999   0.6750869   0.0000085), wk =   0.0277778
        k(   73) = (  -0.4999998   0.7716899   0.0000039), wk =   0.0277778
        k(   74) = (  -0.5000001  -0.2909428   0.0000547), wk =   0.0138889

                       cryst. coord.
        k(    1) = (   0.0000000   0.0000000   0.0000000), wk =   0.0138889
        k(    2) = (   0.0000000   0.0833333   0.0000000), wk =   0.0277778
        k(    3) = (   0.0000000   0.1666667   0.0000000), wk =   0.0277778
        k(    4) = (   0.0000000   0.2500000   0.0000000), wk =   0.0277778
        k(    5) = (   0.0000000   0.3333333   0.0000000), wk =   0.0277778
        k(    6) = (   0.0000000   0.4166667  -0.0000000), wk =   0.0277778
        k(    7) = (  -0.0000000  -0.5000000   0.0000000), wk =   0.0138889
        k(    8) = (   0.0833333  -0.0000000  -0.0000000), wk =   0.0277778
        k(    9) = (   0.0833333   0.0833333  -0.0000000), wk =   0.0277778
        k(   10) = (   0.0833333   0.1666667  -0.0000000), wk =   0.0277778
        k(   11) = (   0.0833333   0.2500000  -0.0000000), wk =   0.0277778
        k(   12) = (   0.0833333   0.3333333   0.0000000), wk =   0.0277778
        k(   13) = (   0.0833333   0.4166667  -0.0000000), wk =   0.0277778
        k(   14) = (   0.0833333  -0.5000000  -0.0000000), wk =   0.0277778
        k(   15) = (   0.0833333  -0.4166667   0.0000000), wk =   0.0277778
        k(   16) = (   0.0833333  -0.3333333  -0.0000000), wk =   0.0277778
        k(   17) = (   0.0833333  -0.2500000  -0.0000000), wk =   0.0277778
        k(   18) = (   0.0833333  -0.1666667   0.0000000), wk =   0.0277778
        k(   19) = (   0.0833333  -0.0833333  -0.0000000), wk =   0.0277778
        k(   20) = (   0.1666667  -0.0000000  -0.0000000), wk =   0.0277778
        k(   21) = (   0.1666667   0.0833333  -0.0000000), wk =   0.0277778
        k(   22) = (   0.1666667   0.1666667  -0.0000000), wk =   0.0277778
        k(   23) = (   0.1666667   0.2500000   0.0000000), wk =   0.0277778
        k(   24) = (   0.1666667   0.3333333  -0.0000000), wk =   0.0277778
        k(   25) = (   0.1666667   0.4166667   0.0000000), wk =   0.0277778
        k(   26) = (   0.1666667  -0.5000000  -0.0000000), wk =   0.0277778
        k(   27) = (   0.1666667  -0.4166667  -0.0000000), wk =   0.0277778
        k(   28) = (   0.1666667  -0.3333333  -0.0000000), wk =   0.0277778
        k(   29) = (   0.1666667  -0.2500000  -0.0000000), wk =   0.0277778
        k(   30) = (   0.1666667  -0.1666667  -0.0000000), wk =   0.0277778
        k(   31) = (   0.1666667  -0.0833333  -0.0000000), wk =   0.0277778
        k(   32) = (   0.2500000  -0.0000000  -0.0000000), wk =   0.0277778
        k(   33) = (   0.2500000   0.0833333  -0.0000000), wk =   0.0277778
        k(   34) = (   0.2500000   0.1666667  -0.0000000), wk =   0.0277778
        k(   35) = (   0.2500000   0.2500000  -0.0000000), wk =   0.0277778
        k(   36) = (   0.2500000   0.3333333  -0.0000000), wk =   0.0277778
        k(   37) = (   0.2500000   0.4166667  -0.0000000), wk =   0.0277778
        k(   38) = (   0.2500000  -0.5000000   0.0000000), wk =   0.0277778
        k(   39) = (   0.2500000  -0.4166667  -0.0000000), wk =   0.0277778
        k(   40) = (   0.2500000  -0.3333333   0.0000000), wk =   0.0277778
        k(   41) = (   0.2500000  -0.2500000  -0.0000000), wk =   0.0277778
        k(   42) = (   0.2500000  -0.1666667  -0.0000000), wk =   0.0277778
        k(   43) = (   0.2500000  -0.0833333  -0.0000000), wk =   0.0277778
        k(   44) = (   0.3333333  -0.0000000  -0.0000000), wk =   0.0277778
        k(   45) = (   0.3333333   0.0833333  -0.0000000), wk =   0.0277778
        k(   46) = (   0.3333333   0.1666667  -0.0000000), wk =   0.0277778
        k(   47) = (   0.3333333   0.2500000  -0.0000000), wk =   0.0277778
        k(   48) = (   0.3333333   0.3333333  -0.0000000), wk =   0.0277778
        k(   49) = (   0.3333333   0.4166667  -0.0000000), wk =   0.0277778
        k(   50) = (   0.3333333  -0.5000000  -0.0000000), wk =   0.0277778
        k(   51) = (   0.3333333  -0.4166667  -0.0000000), wk =   0.0277778
        k(   52) = (   0.3333333  -0.3333333  -0.0000000), wk =   0.0277778
        k(   53) = (   0.3333333  -0.2500000  -0.0000000), wk =   0.0277778
        k(   54) = (   0.3333333  -0.1666667  -0.0000000), wk =   0.0277778
        k(   55) = (   0.3333333  -0.0833333  -0.0000000), wk =   0.0277778
        k(   56) = (   0.4166667  -0.0000000  -0.0000000), wk =   0.0277778
        k(   57) = (   0.4166667   0.0833333  -0.0000000), wk =   0.0277778
        k(   58) = (   0.4166667   0.1666667  -0.0000000), wk =   0.0277778
        k(   59) = (   0.4166667   0.2500000  -0.0000000), wk =   0.0277778
        k(   60) = (   0.4166667   0.3333333  -0.0000000), wk =   0.0277778
        k(   61) = (   0.4166667   0.4166667  -0.0000000), wk =   0.0277778
        k(   62) = (   0.4166667  -0.5000000  -0.0000000), wk =   0.0277778
        k(   63) = (   0.4166667  -0.4166667  -0.0000000), wk =   0.0277778
        k(   64) = (   0.4166667  -0.3333333  -0.0000000), wk =   0.0277778
        k(   65) = (   0.4166667  -0.2500000   0.0000000), wk =   0.0277778
        k(   66) = (   0.4166667  -0.1666667  -0.0000000), wk =   0.0277778
        k(   67) = (   0.4166667  -0.0833333  -0.0000000), wk =   0.0277778
        k(   68) = (  -0.5000000   0.0000000   0.0000000), wk =   0.0138889
        k(   69) = (  -0.5000000   0.0833333   0.0000000), wk =   0.0277778
        k(   70) = (  -0.5000000   0.1666667   0.0000000), wk =   0.0277778
        k(   71) = (  -0.5000000   0.2500000   0.0000000), wk =   0.0277778
        k(   72) = (  -0.5000000   0.3333333   0.0000000), wk =   0.0277778
        k(   73) = (  -0.5000000   0.4166667   0.0000000), wk =   0.0277778
        k(   74) = (  -0.5000000  -0.5000000   0.0000000), wk =   0.0138889

     Dense  grid:    87835 G-vectors     FFT dimensions: (  30,  30, 240)

     Smooth grid:    31017 G-vectors     FFT dimensions: (  24,  24, 162)

     Dynamical RAM for                 wfc:       1.12 MB

     Dynamical RAM for     wfc (w. buffer):      84.21 MB

     Dynamical RAM for           str. fact:       2.68 MB

     Dynamical RAM for           local pot:       0.00 MB

     Dynamical RAM for          nlocal pot:       2.84 MB

     Dynamical RAM for                qrad:       0.67 MB

     Dynamical RAM for          rho,v,vnew:       8.96 MB

     Dynamical RAM for               rhoin:       2.99 MB

     Dynamical RAM for            rho*nmix:      21.44 MB

     Dynamical RAM for           G-vectors:       5.26 MB

     Dynamical RAM for          h,s,v(r/c):       0.26 MB

     Dynamical RAM for          <psi|beta>:       0.01 MB

     Dynamical RAM for                 psi:       4.49 MB

     Dynamical RAM for                hpsi:       4.49 MB

     Dynamical RAM for                spsi:       4.49 MB

     Dynamical RAM for      wfcinit/wfcrot:       2.85 MB

     Dynamical RAM for           addusdens:      62.99 MB

     Dynamical RAM for          addusforce:      79.75 MB

     Dynamical RAM for         addusstress:      67.01 MB

     Estimated static dynamical RAM per process >     141.32 MB

     Estimated max dynamical RAM per process >     221.07 MB

     Check: negative core charge=   -0.000005

     Initial potential from superposition of free atoms

     starting charge   29.99983, renormalised to   30.00000

     negative rho (up, down):  4.750E-04 0.000E+00
     Starting wfcs are   24 randomized atomic wfcs
     Checking if some PAW data can be deallocated... 

     total cpu time spent up to now is        9.9 secs

     Self-consistent Calculation

     iteration #  1     ecut=    45.00 Ry     beta= 0.70
     Davidson diagonalization with overlap
     ethr =  1.00E-02,  avg # of iterations =  2.7

     negative rho (up, down):  5.575E-04 0.000E+00

     total cpu time spent up to now is       18.1 secs

     total energy              =    -189.88110437 Ry
     Harris-Foulkes estimate   =    -190.06070660 Ry
     estimated scf accuracy    <       0.32894325 Ry

     iteration #  2     ecut=    45.00 Ry     beta= 0.70
     Davidson diagonalization with overlap
     ethr =  1.10E-03,  avg # of iterations =  2.4

     negative rho (up, down):  5.875E-04 0.000E+00

     total cpu time spent up to now is       25.7 secs

     total energy              =    -189.91048808 Ry
     Harris-Foulkes estimate   =    -189.96704643 Ry
     estimated scf accuracy    <       0.09107758 Ry

     iteration #  3     ecut=    45.00 Ry     beta= 0.70
     Davidson diagonalization with overlap
     ethr =  3.04E-04,  avg # of iterations =  4.9

     negative rho (up, down):  5.935E-04 0.000E+00

     total cpu time spent up to now is       34.5 secs

     total energy              =    -189.93125931 Ry
     Harris-Foulkes estimate   =    -189.95066614 Ry
     estimated scf accuracy    <       0.03767247 Ry

     iteration #  4     ecut=    45.00 Ry     beta= 0.70
     Davidson diagonalization with overlap
     ethr =  1.26E-04,  avg # of iterations =  4.4

     negative rho (up, down):  5.947E-04 0.000E+00

     total cpu time spent up to now is       42.0 secs

     total energy              =    -189.93940761 Ry
     Harris-Foulkes estimate   =    -189.94382645 Ry
     estimated scf accuracy    <       0.01021503 Ry

     iteration #  5     ecut=    45.00 Ry     beta= 0.70
     Davidson diagonalization with overlap
     ethr =  3.41E-05,  avg # of iterations =  3.4

     negative rho (up, down):  5.983E-04 0.000E+00

     total cpu time spent up to now is       48.9 secs

     total energy              =    -189.94136426 Ry
     Harris-Foulkes estimate   =    -189.94138407 Ry
     estimated scf accuracy    <       0.00006067 Ry

     iteration #  6     ecut=    45.00 Ry     beta= 0.70
     Davidson diagonalization with overlap
     ethr =  2.02E-07,  avg # of iterations =  4.6

     negative rho (up, down):  5.996E-04 0.000E+00

     total cpu time spent up to now is       58.6 secs

     total energy              =    -189.94141627 Ry
     Harris-Foulkes estimate   =    -189.94142650 Ry
     estimated scf accuracy    <       0.00002467 Ry

     iteration #  7     ecut=    45.00 Ry     beta= 0.70
     Davidson diagonalization with overlap
     ethr =  8.22E-08,  avg # of iterations =  2.1

     negative rho (up, down):  6.001E-04 0.000E+00

     total cpu time spent up to now is       64.8 secs

     total energy              =    -189.94141743 Ry
     Harris-Foulkes estimate   =    -189.94141870 Ry
     estimated scf accuracy    <       0.00000274 Ry

     iteration #  8     ecut=    45.00 Ry     beta= 0.70
     Davidson diagonalization with overlap
     ethr =  9.13E-09,  avg # of iterations =  3.0

     negative rho (up, down):  6.002E-04 0.000E+00

     total cpu time spent up to now is       72.6 secs

     End of self-consistent calculation

          k = 0.0000 0.0000 0.0000 (  3859 PWs)   bands (ev):

   -27.2676 -27.2168 -21.5445 -18.1232 -12.1333  -9.3726  -6.1924  -5.7131
    -5.6906  -5.4462  -5.4250  -3.1882  -3.1656  -1.9462  -1.9278   1.9898
     4.5205   4.7496   4.8202

     occupation numbers 
     1.0000   1.0000   1.0000   1.0000   1.0000   1.0000   1.0000   1.0000
     1.0000   1.0000   1.0000   1.0000   1.0000   1.0000   1.0000   0.0000
     0.0000   0.0000   0.0000

          k = 0.0000 0.0966-0.0000 (  3843 PWs)   bands (ev):

   -27.2024 -27.1547 -21.3964 -17.9970 -12.0367  -9.3440  -6.5494  -6.0204
    -5.9116  -5.6997  -5.5533  -3.6111  -3.3666  -2.4617  -2.1323   2.3313
     4.3976   5.1376   5.2663

     occupation numbers 
     1.0000   1.0000   1.0000   1.0000   1.0000   1.0000   1.0000   1.0000
     1.0000   1.0000   1.0000   1.0000   1.0000   1.0000   1.0000   0.0000
     0.0000   0.0000   0.0000

          k = 0.0000 0.1932-0.0000 (  3849 PWs)   bands (ev):

   -27.0202 -26.9811 -20.9528 -17.6203 -11.7654  -9.3004  -7.7373  -7.1411
    -6.4338  -6.1420  -5.8629  -4.3168  -3.7215  -3.5917  -2.5717   2.8499
     4.1723   5.8749   6.1371

     occupation numbers 
     1.0000   1.0000   1.0000   1.0000   1.0000   1.0000   1.0000   1.0000
     1.0000   1.0000   1.0000   1.0000   1.0000   1.0000   1.0000   0.0000
     0.0000   0.0000   0.0000

          k = 0.0000 0.2898-0.0000 (  3871 PWs)   bands (ev):

   -26.7614 -26.7339 -20.2167 -16.9992 -11.4209  -9.8341  -9.1683  -8.3857
    -7.0848  -6.7752  -6.2920  -4.9824  -4.5754  -4.0477  -3.0336   2.9218
     4.2489   5.9143   6.9946

     occupation numbers 
     1.0000   1.0000   1.0000   1.0000   1.0000   1.0000   1.0000   1.0000
     1.0000   1.0000   1.0000   1.0000   1.0000   1.0000   1.0000   0.0000
     0.0000   0.0000   0.0000

          k = 0.0000 0.3864-0.0000 (  3893 PWs)   bands (ev):

   -26.4900 -26.4738 -19.1985 -16.1485 -12.1557 -10.8139 -10.1857  -8.8355
    -7.6668  -7.3702  -6.7129  -5.9093  -4.9396  -4.2941  -3.3908   2.7589
     4.4436   5.6186   7.2914

     occupation numbers 
     1.0000   1.0000   1.0000   1.0000   1.0000   1.0000   1.0000   1.0000
     1.0000   1.0000   1.0000   1.0000   1.0000   1.0000   1.0000   0.0000
     0.0000   0.0000   0.0000

          k = 0.0000 0.4830-0.0000 (  3879 PWs)   bands (ev):

   -26.2822 -26.2745 -17.9449 -15.1610 -13.9551 -12.0888 -10.0435  -9.0439
    -8.0552  -7.6999  -7.0112  -6.5628  -5.1548  -4.4487  -3.6090   2.7396
     4.2887   5.1465   7.5318

     occupation numbers 
     1.0000   1.0000   1.0000   1.0000   1.0000   1.0000   1.0000   1.0000
     1.0000   1.0000   1.0000   1.0000   1.0000   1.0000   1.0000   0.0000
     0.0000   0.0000   0.0000

          k =-0.0000-0.5796 0.0000 (  3894 PWs)   bands (ev):

   -26.2036 -26.1999 -16.9609 -15.4219 -13.9591 -13.2130  -9.7862  -9.2286
    -8.1904  -7.7798  -7.1179  -6.7943  -5.2390  -4.5018  -3.6821   2.8124
     3.9951   5.0699   7.9401

     occupation numbers 
     1.0000   1.0000   1.0000   1.0000   1.0000   1.0000   1.0000   1.0000
     1.0000   1.0000   1.0000   1.0000   1.0000   1.0000   1.0000   0.0000
     0.0000   0.0000   0.0000

          k = 0.0833-0.0481-0.0000 (  3843 PWs)   bands (ev):

   -27.2032 -27.1555 -21.3977 -17.9982 -12.0378  -9.3446  -6.5594  -6.0354
    -5.8861  -5.7234  -5.5316  -3.6326  -3.3430  -2.4801  -2.1116   2.3377
     4.4036   5.1903   5.2453

     occupation numbers 
     1.0000   1.0000   1.0000   1.0000   1.0000   1.0000   1.0000   1.0000
     1.0000   1.0000   1.0000   1.0000   1.0000   1.0000   1.0000   0.0000
     0.0000   0.0000   0.0000

          k = 0.0833 0.0485-0.0000 (  3843 PWs)   bands (ev):

   -27.2028 -27.1550 -21.3970 -17.9976 -12.0373  -9.3443  -6.5542  -6.0280
    -5.8993  -5.7112  -5.5425  -3.6217  -3.3550  -2.4707  -2.1222   2.3344
     4.4006   5.1574   5.2618

     occupation numbers 
     1.0000   1.0000   1.0000   1.0000   1.0000   1.0000   1.0000   1.0000
     1.0000   1.0000   1.0000   1.0000   1.0000   1.0000   1.0000   0.0000
     0.0000   0.0000   0.0000

          k = 0.0833 0.1451-0.0000 (  3823 PWs)   bands (ev):

   -27.0786 -27.0368 -21.1005 -17.7455 -11.8523  -9.3045  -7.2698  -6.7032
    -6.4541  -6.0924  -5.6702  -4.0380  -3.8436  -3.0609  -2.5799   2.8187
     4.3865   5.4902   5.8516

     occupation numbers 
     1.0000   1.0000   1.0000   1.0000   1.0000   1.0000   1.0000   1.0000
     1.0000   1.0000   1.0000   1.0000   1.0000   1.0000   1.0000   0.0000
     0.0000   0.0000   0.0000

          k = 0.0833 0.2417-0.0000 (  3853 PWs)   bands (ev):

   -26.8576 -26.8258 -20.5098 -17.2457 -11.5298  -9.3659  -8.6529  -7.8597
    -7.2156  -6.6952  -6.0172  -4.6986  -4.3565  -3.8072  -3.1403   3.3474
     4.3706   6.1226   6.5362

     occupation numbers 
     1.0000   1.0000   1.0000   1.0000   1.0000   1.0000   1.0000   1.0000
     1.0000   1.0000   1.0000   1.0000   1.0000   1.0000   1.0000   0.0000
     0.0000   0.0000   0.0000

          k = 0.0833 0.3383-0.0000 (  3887 PWs)   bands (ev):

   -26.5916 -26.5711 -19.6306 -16.5071 -11.4386 -10.4855  -9.7009  -8.6892
    -7.9078  -7.3041  -6.5750  -5.5234  -4.7880  -4.2647  -3.5374   3.4047
     4.6103   6.2196   7.1940

     occupation numbers 
     1.0000   1.0000   1.0000   1.0000   1.0000   1.0000   1.0000   1.0000
     1.0000   1.0000   1.0000   1.0000   1.0000   1.0000   1.0000   0.0000
     0.0000   0.0000   0.0000

          k = 0.0833 0.4349-0.0000 (  3893 PWs)   bands (ev):

   -26.3508 -26.3399 -18.4843 -15.5592 -13.0193 -11.3419 -10.1563  -8.9748
    -8.3759  -7.6865  -7.1271  -6.2331  -5.1405  -4.4542  -3.8052   3.3618
     4.7197   5.7931   7.5242

     occupation numbers 
     1.0000   1.0000   1.0000   1.0000   1.0000   1.0000   1.0000   1.0000
     1.0000   1.0000   1.0000   1.0000   1.0000   1.0000   1.0000   0.0000
     0.0000   0.0000   0.0000

          k = 0.0833-0.6277 0.0000 (  3894 PWs)   bands (ev):

   -26.2067 -26.2021 -17.2048 -15.0165 -14.1500 -12.7348  -9.8324  -9.2042
    -8.6391  -7.7920  -7.4715  -6.6354  -5.3325  -4.5421  -3.9453   3.5198
     4.2771   5.6528   7.7978

     occupation numbers 
     1.0000   1.0000   1.0000   1.0000   1.0000   1.0000   1.0000   1.0000
     1.0000   1.0000   1.0000   1.0000   1.0000   1.0000   1.0000   0.0000
     0.0000   0.0000   0.0000

          k = 0.0833-0.5311 0.0000 (  3896 PWs)   bands (ev):

   -26.2072 -26.2026 -17.2099 -15.0128 -14.1529 -12.7276  -9.8350  -9.2002
    -8.6443  -7.7856  -7.4795  -6.6338  -5.3324  -4.5423  -3.9470   3.5217
     4.2797   5.6550   7.7979

     occupation numbers 
     1.0000   1.0000   1.0000   1.0000   1.0000   1.0000   1.0000   1.0000
     1.0000   1.0000   1.0000   1.0000   1.0000   1.0000   1.0000   0.0000
     0.0000   0.0000   0.0000

          k = 0.0833-0.4345 0.0000 (  3893 PWs)   bands (ev):

   -26.3521 -26.3412 -18.4898 -15.5640 -13.0104 -11.3337 -10.1574  -8.9717
    -8.3872  -7.6773  -7.1408  -6.2287  -5.1398  -4.4554  -3.8096   3.3683
     4.7255   5.7988   7.5285

     occupation numbers 
     1.0000   1.0000   1.0000   1.0000   1.0000   1.0000   1.0000   1.0000
     1.0000   1.0000   1.0000   1.0000   1.0000   1.0000   1.0000   0.0000
     0.0000   0.0000   0.0000

          k = 0.0833-0.3379 0.0000 (  3879 PWs)   bands (ev):

   -26.5933 -26.5728 -19.6350 -16.5110 -11.4363 -10.4799  -9.6928  -8.6877
    -7.9184  -7.3002  -6.5882  -5.5180  -4.7844  -4.2678  -3.5438   3.4144
     4.6186   6.2245   7.2069

     occupation numbers 
     1.0000   1.0000   1.0000   1.0000   1.0000   1.0000   1.0000   1.0000
     1.0000   1.0000   1.0000   1.0000   1.0000   1.0000   1.0000   0.0000
     0.0000   0.0000   0.0000

          k = 0.0833-0.2413 0.0000 (  3859 PWs)   bands (ev):

   -26.8592 -26.8275 -20.5130 -17.2486 -11.5322  -9.3650  -8.6437  -7.8578
    -7.2204  -6.6948  -6.0276  -4.6948  -4.3542  -3.8058  -3.1475   3.3567
     4.3847   6.1212   6.5573

     occupation numbers 
     1.0000   1.0000   1.0000   1.0000   1.0000   1.0000   1.0000   1.0000
     1.0000   1.0000   1.0000   1.0000   1.0000   1.0000   1.0000   0.0000
     0.0000   0.0000   0.0000

          k = 0.0833-0.1447 0.0000 (  3823 PWs)   bands (ev):

   -27.0798 -27.0379 -21.1024 -17.7473 -11.8539  -9.3052  -7.2718  -6.7082
    -6.4492  -6.0883  -5.6747  -4.0393  -3.8424  -3.0593  -2.5793   2.8274
     4.4006   5.5029   5.8481

     occupation numbers 
     1.0000   1.0000   1.0000   1.0000   1.0000   1.0000   1.0000   1.0000
     1.0000   1.0000   1.0000   1.0000   1.0000   1.0000   1.0000   0.0000
     0.0000   0.0000   0.0000

          k = 0.1667-0.0962-0.0000 (  3841 PWs)   bands (ev):

   -27.0233 -26.9842 -20.9579 -17.6250 -11.7701  -9.3027  -7.7754  -7.1564
    -6.3936  -6.1587  -5.8319  -4.3347  -3.6922  -3.6086  -2.5416   2.8731
     4.1904   5.9391   6.0455

     occupation numbers 
     1.0000   1.0000   1.0000   1.0000   1.0000   1.0000   1.0000   1.0000
     1.0000   1.0000   1.0000   1.0000   1.0000   1.0000   1.0000   0.0000
     0.0000   0.0000   0.0000

          k = 0.1667 0.0004-0.0000 (  3827 PWs)   bands (ev):

   -27.0809 -27.0391 -21.1044 -17.7490 -11.8556  -9.3058  -7.2726  -6.7125
    -6.4452  -6.0841  -5.6801  -4.0392  -3.8426  -3.0570  -2.5796   2.8357
     4.4137   5.5166   5.8444

     occupation numbers 
     1.0000   1.0000   1.0000   1.0000   1.0000   1.0000   1.0000   1.0000
     1.0000   1.0000   1.0000   1.0000   1.0000   1.0000   1.0000   0.0000
     0.0000   0.0000   0.0000

          k = 0.1667 0.0970-0.0000 (  3847 PWs)   bands (ev):

   -27.0217 -26.9826 -20.9554 -17.6227 -11.7677  -9.3015  -7.7560  -7.1487
    -6.4139  -6.1503  -5.8475  -4.3256  -3.7071  -3.6000  -2.5569   2.8615
     4.1813   5.9044   6.0486

     occupation numbers 
     1.0000   1.0000   1.0000   1.0000   1.0000   1.0000   1.0000   1.0000
     1.0000   1.0000   1.0000   1.0000   1.0000   1.0000   1.0000   0.0000
     0.0000   0.0000   0.0000

          k = 0.1667 0.1936-0.0000 (  3849 PWs)   bands (ev):

   -26.8587 -26.8269 -20.5117 -17.2475 -11.5318  -9.3684  -8.6719  -7.8653
    -7.1985  -6.6906  -6.0086  -4.7059  -4.3532  -3.8072  -3.1250   3.3599
     4.3693   6.1432   6.5558

     occupation numbers 
     1.0000   1.0000   1.0000   1.0000   1.0000   1.0000   1.0000   1.0000
     1.0000   1.0000   1.0000   1.0000   1.0000   1.0000   1.0000   0.0000
     0.0000   0.0000   0.0000

          k = 0.1667 0.2902-0.0000 (  3859 PWs)   bands (ev):

   -26.6296 -26.6075 -19.7770 -16.6290 -11.3013  -9.8160  -9.7392  -8.4782
    -8.1977  -7.6342  -6.4007  -5.4532  -4.6051  -4.1416  -3.9151   4.2694
     4.5654   6.5786   7.5880

     occupation numbers 
     1.0000   1.0000   1.0000   1.0000   1.0000   1.0000   1.0000   1.0000
     1.0000   1.0000   1.0000   1.0000   1.0000   1.0000   1.0000   0.0000
     0.0000   0.0000   0.0000

          k = 0.1667 0.3868-0.0000 (  3877 PWs)   bands (ev):

   -26.3924 -26.3794 -18.7634 -15.7818 -12.0326 -10.8794 -10.0832  -9.1450
    -8.8130  -8.2231  -7.0202  -6.0359  -5.0230  -4.5178  -4.2603   4.4195
     5.1390   7.0717   7.3745

     occupation numbers 
     1.0000   1.0000   1.0000   1.0000   1.0000   1.0000   1.0000   1.0000
     1.0000   1.0000   1.0000   1.0000   1.0000   1.0000   1.0000   0.0000
     0.0000   0.0000   0.0000

          k = 0.1667-0.6758 0.0000 (  3882 PWs)   bands (ev):

   -26.2131 -26.2069 -17.5229 -14.7955 -13.6488 -12.0064  -9.9930  -9.6689
    -9.1105  -8.2852  -7.6231  -6.3793  -5.4728  -4.6228  -4.4641   4.3817
     5.4186   6.9427   7.3142

     occupation numbers 
     1.0000   1.0000   1.0000   1.0000   1.0000   1.0000   1.0000   1.0000
     1.0000   1.0000   1.0000   1.0000   1.0000   1.0000   1.0000   0.0000
     0.0000   0.0000   0.0000

          k = 0.1667-0.5792 0.0000 (  3889 PWs)   bands (ev):

   -26.1465 -26.1433 -16.5702 -15.0242 -13.5774 -13.0588 -10.1996  -9.4621
    -9.2481  -8.2919  -7.8925  -6.4936  -5.6385  -4.6032  -4.5891   4.4155
     5.3041   7.0183   7.3166

     occupation numbers 
     1.0000   1.0000   1.0000   1.0000   1.0000   1.0000   1.0000   1.0000
     1.0000   1.0000   1.0000   1.0000   1.0000   1.0000   1.0000   0.0000
     0.0000   0.0000   0.0000

          k = 0.1667-0.4826 0.0000 (  3884 PWs)   bands (ev):

   -26.2150 -26.2087 -17.5347 -14.8043 -13.6350 -11.9896 -10.0014  -9.6705
    -9.1127  -8.2806  -7.6332  -6.3722  -5.4726  -4.6182  -4.4730   4.3844
     5.4225   6.9554   7.3083

     occupation numbers 
     1.0000   1.0000   1.0000   1.0000   1.0000   1.0000   1.0000   1.0000
     1.0000   1.0000   1.0000   1.0000   1.0000   1.0000   1.0000   0.0000
     0.0000   0.0000   0.0000

          k = 0.1667-0.3860 0.0000 (  3873 PWs)   bands (ev):

   -26.3955 -26.3825 -18.7735 -15.7910 -12.0180 -10.8689 -10.0808  -9.1484
    -8.8242  -8.2193  -7.0312  -6.0272  -5.0175  -4.5173  -4.2692   4.4252
     5.1479   7.0749   7.3889

     occupation numbers 
     1.0000   1.0000   1.0000   1.0000   1.0000   1.0000   1.0000   1.0000
     1.0000   1.0000   1.0000   1.0000   1.0000   1.0000   1.0000   0.0000
     0.0000   0.0000   0.0000

          k = 0.1667-0.2894 0.0000 (  3857 PWs)   bands (ev):

   -26.6331 -26.6109 -19.7847 -16.6360 -11.3054  -9.8123  -9.7290  -8.4851
    -8.1934  -7.6341  -6.4099  -5.4476  -4.5984  -4.1401  -3.9199   4.2805
     4.5816   6.5942   7.6173

     occupation numbers 
     1.0000   1.0000   1.0000   1.0000   1.0000   1.0000   1.0000   1.0000
     1.0000   1.0000   1.0000   1.0000   1.0000   1.0000   1.0000   0.0000
     0.0000   0.0000   0.0000

          k = 0.1667-0.1928-0.0000 (  3847 PWs)   bands (ev):

   -26.8615 -26.8297 -20.5169 -17.2522 -11.5362  -9.3701  -8.6824  -7.8688
    -7.1860  -6.6858  -6.0100  -4.7096  -4.3476  -3.8058  -3.1164   3.3811
     4.3822   6.1630   6.5958

     occupation numbers 
     1.0000   1.0000   1.0000   1.0000   1.0000   1.0000   1.0000   1.0000
     1.0000   1.0000   1.0000   1.0000   1.0000   1.0000   1.0000   0.0000
     0.0000   0.0000   0.0000

          k = 0.2500-0.1443-0.0000 (  3865 PWs)   bands (ev):

   -26.7679 -26.7403 -20.2284 -17.0100 -11.4333  -9.8627  -9.1947  -8.4020
    -7.0287  -6.7837  -6.2486  -5.0032  -4.5789  -4.0143  -2.9961   2.9851
     4.2545   5.9944   6.9987

     occupation numbers 
     1.0000   1.0000   1.0000   1.0000   1.0000   1.0000   1.0000   1.0000
     1.0000   1.0000   1.0000   1.0000   1.0000   1.0000   1.0000   0.0000
     0.0000   0.0000   0.0000

          k = 0.2500-0.0477-0.0000 (  3854 PWs)   bands (ev):

   -26.8632 -26.8313 -20.5200 -17.2550 -11.5385  -9.3690  -8.6730  -7.8665
    -7.1910  -6.6855  -6.0207  -4.7057  -4.3451  -3.8049  -3.1236   3.3898
     4.3957   6.1634   6.6126

     occupation numbers 
     1.0000   1.0000   1.0000   1.0000   1.0000   1.0000   1.0000   1.0000
     1.0000   1.0000   1.0000   1.0000   1.0000   1.0000   1.0000   0.0000
     0.0000   0.0000   0.0000

          k = 0.2500 0.0489-0.0000 (  3863 PWs)   bands (ev):

   -26.8620 -26.8302 -20.5181 -17.2532 -11.5365  -9.3665  -8.6533  -7.8611
    -7.2084  -6.6899  -6.0298  -4.6982  -4.3484  -3.8049  -3.1393   3.3778
     4.3969   6.1422   6.5941

     occupation numbers 
     1.0000   1.0000   1.0000   1.0000   1.0000   1.0000   1.0000   1.0000
     1.0000   1.0000   1.0000   1.0000   1.0000   1.0000   1.0000   0.0000
     0.0000   0.0000   0.0000

          k = 0.2500 0.1455-0.0000 (  3869 PWs)   bands (ev):

   -26.7646 -26.7371 -20.2225 -17.0045 -11.4270  -9.8482  -9.1815  -8.3938
    -7.0569  -6.7794  -6.2704  -4.9927  -4.5771  -4.0311  -3.0150   2.9535
     4.2519   5.9540   6.9968

     occupation numbers 
     1.0000   1.0000   1.0000   1.0000   1.0000   1.0000   1.0000   1.0000
     1.0000   1.0000   1.0000   1.0000   1.0000   1.0000   1.0000   0.0000
     0.0000   0.0000   0.0000

          k = 0.2500 0.2421-0.0000 (  3883 PWs)   bands (ev):

   -26.5944 -26.5738 -19.6359 -16.5122 -11.4510 -10.5013  -9.7108  -8.6963
    -7.8787  -7.2972  -6.5575  -5.5298  -4.7909  -4.2524  -3.5182   3.4375
     4.5992   6.2657   7.2095

     occupation numbers 
     1.0000   1.0000   1.0000   1.0000   1.0000   1.0000   1.0000   1.0000
     1.0000   1.0000   1.0000   1.0000   1.0000   1.0000   1.0000   0.0000
     0.0000   0.0000   0.0000

          k = 0.2500 0.3387-0.0000 (  3878 PWs)   bands (ev):

   -26.3940 -26.3811 -18.7669 -15.7855 -12.0474 -10.8859 -10.0830  -9.1387
    -8.8056  -8.2142  -7.0146  -6.0382  -5.0253  -4.5124  -4.2499   4.4359
     5.1296   7.0821   7.4250

     occupation numbers 
     1.0000   1.0000   1.0000   1.0000   1.0000   1.0000   1.0000   1.0000
     1.0000   1.0000   1.0000   1.0000   1.0000   1.0000   1.0000   0.0000
     0.0000   0.0000   0.0000

          k = 0.2500-0.7240 0.0000 (  3895 PWs)   bands (ev):

   -26.2173 -26.2104 -17.6462 -14.8559 -12.9282 -11.9035 -10.0047  -9.9468
    -9.5610  -8.4791  -7.5787  -6.2988  -5.3230  -5.0232  -4.5267   4.6769
     5.9632   6.8337   8.9516

     occupation numbers 
     1.0000   1.0000   1.0000   1.0000   1.0000   1.0000   1.0000   1.0000
     1.0000   1.0000   1.0000   1.0000   1.0000   1.0000   1.0000   0.0000
     0.0000   0.0000   0.0000

          k = 0.2500-0.6274 0.0000 (  3874 PWs)   bands (ev):

   -26.1142 -26.1109 -16.4341 -14.2810 -13.6571 -12.7707 -10.9372 -10.2739
    -9.1495  -8.5516  -8.0830  -6.2608  -5.7440  -5.2540  -4.6134   4.7541
     5.7983   7.5901   8.5220

     occupation numbers 
     1.0000   1.0000   1.0000   1.0000   1.0000   1.0000   1.0000   1.0000
     1.0000   1.0000   1.0000   1.0000   1.0000   1.0000   1.0000   0.0000
     0.0000   0.0000   0.0000

          k = 0.2500-0.5307 0.0000 (  3873 PWs)   bands (ev):

   -26.1155 -26.1123 -16.4495 -14.2677 -13.6745 -12.7472 -10.9394 -10.2772
    -9.1491  -8.5506  -8.0864  -6.2551  -5.7443  -5.2545  -4.6147   4.7552
     5.7961   7.5891   8.5295

     occupation numbers 
     1.0000   1.0000   1.0000   1.0000   1.0000   1.0000   1.0000   1.0000
     1.0000   1.0000   1.0000   1.0000   1.0000   1.0000   1.0000   0.0000
     0.0000   0.0000   0.0000

          k = 0.2500-0.4341 0.0000 (  3896 PWs)   bands (ev):

   -26.2210 -26.2141 -17.6633 -14.8729 -12.9102 -11.8880 -10.0093  -9.9514
    -9.5565  -8.4781  -7.5845  -6.2902  -5.3176  -5.0233  -4.5299   4.6795
     5.9585   6.8441   8.9830

     occupation numbers 
     1.0000   1.0000   1.0000   1.0000   1.0000   1.0000   1.0000   1.0000
     1.0000   1.0000   1.0000   1.0000   1.0000   1.0000   1.0000   0.0000
     0.0000   0.0000   0.0000

          k = 0.2500-0.3375-0.0000 (  3875 PWs)   bands (ev):

   -26.3989 -26.3859 -18.7805 -15.7984 -12.0477 -10.8823 -10.0803  -9.1351
    -8.8098  -8.2012  -7.0200  -6.0319  -5.0220  -4.5065  -4.2480   4.4565
     5.1298   7.0958   7.4899

     occupation numbers 
     1.0000   1.0000   1.0000   1.0000   1.0000   1.0000   1.0000   1.0000
     1.0000   1.0000   1.0000   1.0000   1.0000   1.0000   1.0000   0.0000
     0.0000   0.0000   0.0000

          k = 0.2500-0.2409-0.0000 (  3880 PWs)   bands (ev):

   -26.5990 -26.5784 -19.6457 -16.5213 -11.4611 -10.5116  -9.7129  -8.7019
    -7.8595  -7.2868  -6.5527  -5.5310  -4.7902  -4.2430  -3.5050   3.4794
     4.5959   6.3174   7.2381

     occupation numbers 
     1.0000   1.0000   1.0000   1.0000   1.0000   1.0000   1.0000   1.0000
     1.0000   1.0000   1.0000   1.0000   1.0000   1.0000   1.0000   0.0000
     0.0000   0.0000   0.0000

          k = 0.3333-0.1925-0.0000 (  3891 PWs)   bands (ev):

   -26.5000 -26.4837 -19.2199 -16.1694 -12.1899 -10.8420 -10.1985  -8.8484
    -7.5984  -7.3720  -6.6583  -5.9201  -4.9434  -4.2573  -3.3487   2.8506
     4.4464   5.6899   7.3526

     occupation numbers 
     1.0000   1.0000   1.0000   1.0000   1.0000   1.0000   1.0000   1.0000
     1.0000   1.0000   1.0000   1.0000   1.0000   1.0000   1.0000   0.0000
     0.0000   0.0000   0.0000

          k = 0.3333-0.0958-0.0000 (  3880 PWs)   bands (ev):

   -26.6007 -26.5801 -19.6500 -16.5252 -11.4586 -10.5061  -9.7049  -8.7003
    -7.8697  -7.2830  -6.5660  -5.5257  -4.7866  -4.2461  -3.5112   3.4884
     4.6039   6.3221   7.2518

     occupation numbers 
     1.0000   1.0000   1.0000   1.0000   1.0000   1.0000   1.0000   1.0000
     1.0000   1.0000   1.0000   1.0000   1.0000   1.0000   1.0000   0.0000
     0.0000   0.0000   0.0000

          k = 0.3333 0.0008-0.0000 (  3859 PWs)   bands (ev):

   -26.6365 -26.6142 -19.7923 -16.6429 -11.3092  -9.8060  -9.7203  -8.4921
    -8.1896  -7.6340  -6.4195  -5.4419  -4.5917  -4.1384  -3.9254   4.2928
     4.5954   6.6109   7.6515

     occupation numbers 
     1.0000   1.0000   1.0000   1.0000   1.0000   1.0000   1.0000   1.0000
     1.0000   1.0000   1.0000   1.0000   1.0000   1.0000   1.0000   0.0000
     0.0000   0.0000   0.0000

          k = 0.3333 0.0974-0.0000 (  3876 PWs)   bands (ev):

   -26.5979 -26.5773 -19.6447 -16.5200 -11.4460 -10.4902  -9.6946  -8.6933
    -7.8995  -7.2894  -6.5841  -5.5191  -4.7837  -4.2586  -3.5307   3.4562
     4.6155   6.2754   7.2361

     occupation numbers 
     1.0000   1.0000   1.0000   1.0000   1.0000   1.0000   1.0000   1.0000
     1.0000   1.0000   1.0000   1.0000   1.0000   1.0000   1.0000   0.0000
     0.0000   0.0000   0.0000

          k = 0.3333 0.1940-0.0000 (  3893 PWs)   bands (ev):

   -26.4950 -26.4787 -19.2091 -16.1588 -12.1727 -10.8279 -10.1921  -8.8420
    -7.6327  -7.3712  -6.6855  -5.9147  -4.9415  -4.2758  -3.3698   2.8049
     4.4458   5.6533   7.3216

     occupation numbers 
     1.0000   1.0000   1.0000   1.0000   1.0000   1.0000   1.0000   1.0000
     1.0000   1.0000   1.0000   1.0000   1.0000   1.0000   1.0000   0.0000
     0.0000   0.0000   0.0000

          k = 0.3333 0.2906-0.0000 (  3887 PWs)   bands (ev):

   -26.3553 -26.3444 -18.4949 -15.5709 -13.0361 -11.3579 -10.1606  -8.9787
    -8.3421  -7.6832  -7.1018  -6.2372  -5.1398  -4.4409  -3.7846   3.4047
     4.7075   5.8413   7.5578

     occupation numbers 
     1.0000   1.0000   1.0000   1.0000   1.0000   1.0000   1.0000   1.0000
     1.0000   1.0000   1.0000   1.0000   1.0000   1.0000   1.0000   0.0000
     0.0000   0.0000   0.0000

          k = 0.3333-0.7721 0.0000 (  3886 PWs)   bands (ev):

   -26.2165 -26.2103 -17.5327 -14.8124 -13.6548 -12.0171  -9.9804  -9.6618
    -9.1037  -8.2769  -7.6151  -6.3827  -5.4690  -4.6169  -4.4515   4.3834
     5.4408   6.9589   7.3634

     occupation numbers 
     1.0000   1.0000   1.0000   1.0000   1.0000   1.0000   1.0000   1.0000
     1.0000   1.0000   1.0000   1.0000   1.0000   1.0000   1.0000   0.0000
     0.0000   0.0000   0.0000

          k = 0.3333-0.6755 0.0000 (  3870 PWs)   bands (ev):

   -26.1159 -26.1127 -16.4430 -14.3080 -13.6348 -12.7753 -10.9329 -10.2606
    -9.1530  -8.5522  -8.0794  -6.2627  -5.7413  -5.2484  -4.6122   4.7463
     5.8086   7.5957   8.5521

     occupation numbers 
     1.0000   1.0000   1.0000   1.0000   1.0000   1.0000   1.0000   1.0000
     1.0000   1.0000   1.0000   1.0000   1.0000   1.0000   1.0000   0.0000
     0.0000   0.0000   0.0000

          k = 0.3333-0.5789 0.0000 (  3851 PWs)   bands (ev):

   -26.0804 -26.0781 -15.8122 -13.9689 -13.9660 -12.8843 -11.1163 -11.1121
    -8.6458  -8.5954  -8.5925  -5.8831  -5.8359  -5.8328  -4.6373   5.2039
     5.2181   8.4188   9.1515

     occupation numbers 
     1.0000   1.0000   1.0000   1.0000   1.0000   1.0000   1.0000   1.0000
     1.0000   1.0000   1.0000   1.0000   1.0000   1.0000   1.0000   0.0000
     0.0000   0.0000   0.0000

          k = 0.3333-0.4823-0.0000 (  3875 PWs)   bands (ev):

   -26.1191 -26.1158 -16.4672 -14.3228 -13.6293 -12.7564 -10.9307 -10.2505
    -9.1561  -8.5518  -8.0793  -6.2590  -5.7387  -5.2431  -4.6125   4.7396
     5.8168   7.5987   8.5882

     occupation numbers 
     1.0000   1.0000   1.0000   1.0000   1.0000   1.0000   1.0000   1.0000
     1.0000   1.0000   1.0000   1.0000   1.0000   1.0000   1.0000   0.0000
     0.0000   0.0000   0.0000

          k = 0.3333-0.3857-0.0000 (  3882 PWs)   bands (ev):

   -26.2219 -26.2156 -17.5544 -14.8381 -13.6471 -12.0114  -9.9766  -9.6553
    -9.0995  -8.2635  -7.6173  -6.3791  -5.4648  -4.6068  -4.4474   4.3865
     5.4667   6.9857   7.4087

     occupation numbers 
     1.0000   1.0000   1.0000   1.0000   1.0000   1.0000   1.0000   1.0000
     1.0000   1.0000   1.0000   1.0000   1.0000   1.0000   1.0000   0.0000
     0.0000   0.0000   0.0000

          k = 0.3333-0.2891-0.0000 (  3889 PWs)   bands (ev):

   -26.3614 -26.3504 -18.5111 -15.5876 -13.0440 -11.3660 -10.1660  -8.9799
    -8.3190  -7.6714  -7.0895  -6.2370  -5.1383  -4.4286  -3.7684   3.4530
     4.7012   5.8952   7.5969

     occupation numbers 
     1.0000   1.0000   1.0000   1.0000   1.0000   1.0000   1.0000   1.0000
     1.0000   1.0000   1.0000   1.0000   1.0000   1.0000   1.0000   0.0000
     0.0000   0.0000   0.0000

          k = 0.4167-0.2406-0.0000 (  3875 PWs)   bands (ev):

   -26.2950 -26.2872 -17.9811 -15.2080 -13.9639 -12.1120 -10.0579  -9.0571
    -7.9793  -7.6986  -6.9491  -6.5676  -5.1581  -4.4096  -3.5644   2.8517
     4.2736   5.2432   7.5754

     occupation numbers 
     1.0000   1.0000   1.0000   1.0000   1.0000   1.0000   1.0000   1.0000
     1.0000   1.0000   1.0000   1.0000   1.0000   1.0000   1.0000   0.0000
     0.0000   0.0000   0.0000

          k = 0.4167-0.1440-0.0000 (  3885 PWs)   bands (ev):

   -26.3627 -26.3517 -18.5166 -15.5923 -13.0352 -11.3580 -10.1671  -8.9770
    -8.3298  -7.6628  -7.1027  -6.2328  -5.1376  -4.4299  -3.7728   3.4590
     4.7067   5.9009   7.6022

     occupation numbers 
     1.0000   1.0000   1.0000   1.0000   1.0000   1.0000   1.0000   1.0000
     1.0000   1.0000   1.0000   1.0000   1.0000   1.0000   1.0000   0.0000
     0.0000   0.0000   0.0000

          k = 0.4167-0.0474-0.0000 (  3873 PWs)   bands (ev):

   -26.4020 -26.3889 -18.7905 -15.8075 -12.0331 -10.8719 -10.0777  -9.1384
    -8.8212  -8.1974  -7.0312  -6.0233  -5.0166  -4.5061  -4.2568   4.4620
     5.1378   7.1007   7.5034

     occupation numbers 
     1.0000   1.0000   1.0000   1.0000   1.0000   1.0000   1.0000   1.0000
     1.0000   1.0000   1.0000   1.0000   1.0000   1.0000   1.0000   0.0000
     0.0000   0.0000   0.0000

          k = 0.4167 0.0492-0.0000 (  3871 PWs)   bands (ev):

   -26.4003 -26.3872 -18.7870 -15.8037 -12.0181 -10.8650 -10.0780  -9.1454
    -8.8282  -8.2065  -7.0368  -6.0209  -5.0143  -4.5114  -4.2675   4.4470
     5.1465   7.0904   7.4527

     occupation numbers 
     1.0000   1.0000   1.0000   1.0000   1.0000   1.0000   1.0000   1.0000
     1.0000   1.0000   1.0000   1.0000   1.0000   1.0000   1.0000   0.0000
     0.0000   0.0000   0.0000

          k = 0.4167 0.1458-0.0000 (  3891 PWs)   bands (ev):

   -26.3581 -26.3471 -18.5059 -15.5804 -13.0185 -11.3418 -10.1628  -8.9727
    -8.3642  -7.6654  -7.1287  -6.2286  -5.1384  -4.4433  -3.7935   3.4172
     4.7188   5.8527   7.5673

     occupation numbers 
     1.0000   1.0000   1.0000   1.0000   1.0000   1.0000   1.0000   1.0000
     1.0000   1.0000   1.0000   1.0000   1.0000   1.0000   1.0000   0.0000
     0.0000   0.0000   0.0000

          k = 0.4167 0.2425-0.0000 (  3881 PWs)   bands (ev):

   -26.2885 -26.2808 -17.9629 -15.1843 -13.9596 -12.1004 -10.0507  -9.0505
    -8.0172  -7.6994  -6.9800  -6.5652  -5.1564  -4.4292  -3.5867   2.7958
     4.2814   5.1948   7.5531

     occupation numbers 
     1.0000   1.0000   1.0000   1.0000   1.0000   1.0000   1.0000   1.0000
     1.0000   1.0000   1.0000   1.0000   1.0000   1.0000   1.0000   0.0000
     0.0000   0.0000   0.0000

          k = 0.4167-0.8202 0.0000 (  3897 PWs)   bands (ev):

   -26.2126 -26.2080 -17.2256 -15.0449 -14.1473 -12.7442  -9.8372  -9.2086
    -8.6050  -7.7923  -7.4417  -6.6367  -5.3301  -4.5288  -3.9249   3.5754
     4.2683   5.7030   7.8215

     occupation numbers 
     1.0000   1.0000   1.0000   1.0000   1.0000   1.0000   1.0000   1.0000
     1.0000   1.0000   1.0000   1.0000   1.0000   1.0000   1.0000   0.0000
     0.0000   0.0000   0.0000

          k = 0.4167-0.7236 0.0000 (  3889 PWs)   bands (ev):

   -26.1513 -26.1481 -16.5965 -15.0383 -13.5863 -13.0530 -10.1802  -9.4564
    -9.2498  -8.2773  -7.8903  -6.4947  -5.6325  -4.6001  -4.5746   4.4028
     5.3563   7.0398   7.3569

     occupation numbers 
     1.0000   1.0000   1.0000   1.0000   1.0000   1.0000   1.0000   1.0000
     1.0000   1.0000   1.0000   1.0000   1.0000   1.0000   1.0000   0.0000
     0.0000   0.0000   0.0000

          k = 0.4167-0.6270-0.0000 (  3870 PWs)   bands (ev):

   -26.1187 -26.1154 -16.4734 -14.2832 -13.6679 -12.7287 -10.9373 -10.2672
    -9.1521  -8.5502  -8.0861  -6.2515  -5.7417  -5.2492  -4.6149   4.7486
     5.8041   7.5935   8.5679

     occupation numbers 
     1.0000   1.0000   1.0000   1.0000   1.0000   1.0000   1.0000   1.0000
     1.0000   1.0000   1.0000   1.0000   1.0000   1.0000   1.0000   0.0000
     0.0000   0.0000   0.0000

          k = 0.4167-0.5304-0.0000 (  3876 PWs)   bands (ev):

   -26.1205 -26.1172 -16.4823 -14.3111 -13.6450 -12.7333 -10.9329 -10.2538
    -9.1556  -8.5508  -8.0826  -6.2535  -5.7389  -5.2435  -4.6138   4.7408
     5.8145   7.5975   8.5965

     occupation numbers 
     1.0000   1.0000   1.0000   1.0000   1.0000   1.0000   1.0000   1.0000
     1.0000   1.0000   1.0000   1.0000   1.0000   1.0000   1.0000   0.0000
     0.0000   0.0000   0.0000

          k = 0.4167-0.4338-0.0000 (  3890 PWs)   bands (ev):

   -26.1561 -26.1530 -16.6229 -15.0531 -13.5940 -13.0479 -10.1610  -9.4511
    -9.2511  -8.2619  -7.8885  -6.4957  -5.6264  -4.5938  -4.5633   4.3902
     5.4075   7.0591   7.3974

     occupation numbers 
     1.0000   1.0000   1.0000   1.0000   1.0000   1.0000   1.0000   1.0000
     1.0000   1.0000   1.0000   1.0000   1.0000   1.0000   1.0000   0.0000
     0.0000   0.0000   0.0000

          k = 0.4167-0.3372-0.0000 (  3893 PWs)   bands (ev):

   -26.2192 -26.2146 -17.2517 -15.0700 -14.1471 -12.7466  -9.8448  -9.2095
    -8.5758  -7.7863  -7.4197  -6.6363  -5.3277  -4.5156  -3.9062   3.6310
     4.2640   5.7541   7.8468

     occupation numbers 
     1.0000   1.0000   1.0000   1.0000   1.0000   1.0000   1.0000   1.0000
     1.0000   1.0000   1.0000   1.0000   1.0000   1.0000   1.0000   0.0000
     0.0000   0.0000   0.0000

          k =-0.5000 0.2887 0.0000 (  3882 PWs)   bands (ev):

   -26.2174 -26.2138 -17.0202 -15.4544 -13.9825 -13.2141  -9.8051  -9.2395
    -8.1120  -7.7781  -7.0533  -6.7972  -5.2419  -4.4617  -3.6367   2.9422
     3.9690   5.1754   7.9480

     occupation numbers 
     1.0000   1.0000   1.0000   1.0000   1.0000   1.0000   1.0000   1.0000
     1.0000   1.0000   1.0000   1.0000   1.0000   1.0000   1.0000   0.0000
     0.0000   0.0000   0.0000

          k =-0.5000 0.3853 0.0000 (  3895 PWs)   bands (ev):

   -26.2197 -26.2150 -17.2567 -15.0666 -14.1496 -12.7397  -9.8472  -9.2058
    -8.5807  -7.7808  -7.4266  -6.6348  -5.3275  -4.5159  -3.9078   3.6326
     4.2668   5.7561   7.8478

     occupation numbers 
     1.0000   1.0000   1.0000   1.0000   1.0000   1.0000   1.0000   1.0000
     1.0000   1.0000   1.0000   1.0000   1.0000   1.0000   1.0000   0.0000
     0.0000   0.0000   0.0000

          k =-0.5000 0.4819 0.0000 (  3880 PWs)   bands (ev):

   -26.2237 -26.2175 -17.5659 -14.8463 -13.6339 -11.9950  -9.9848  -9.6566
    -9.1020  -8.2585  -7.6276  -6.3722  -5.4645  -4.6024  -4.4561   4.3892
     5.4694   6.9987   7.4031

     occupation numbers 
     1.0000   1.0000   1.0000   1.0000   1.0000   1.0000   1.0000   1.0000
     1.0000   1.0000   1.0000   1.0000   1.0000   1.0000   1.0000   0.0000
     0.0000   0.0000   0.0000

          k =-0.5000 0.5785 0.0000 (  3897 PWs)   bands (ev):

   -26.2246 -26.2176 -17.6802 -14.8893 -12.8924 -11.8726 -10.0126  -9.9578
    -9.5518  -8.4771  -7.5903  -6.2818  -5.3123  -5.0234  -4.5329   4.6824
     5.9530   6.8549   9.0236

     occupation numbers 
     1.0000   1.0000   1.0000   1.0000   1.0000   1.0000   1.0000   1.0000
     1.0000   1.0000   1.0000   1.0000   1.0000   1.0000   1.0000   0.0000
     0.0000   0.0000   0.0000

          k =-0.5000 0.6751 0.0000 (  3880 PWs)   bands (ev):

   -26.2203 -26.2140 -17.5560 -14.8294 -13.6278 -11.9839  -9.9970  -9.6646
    -9.1084  -8.2674  -7.6355  -6.3687  -5.4685  -4.6079  -4.4690   4.3889
     5.4474   6.9847   7.3518

     occupation numbers 
     1.0000   1.0000   1.0000   1.0000   1.0000   1.0000   1.0000   1.0000
     1.0000   1.0000   1.0000   1.0000   1.0000   1.0000   1.0000   0.0000
     0.0000   0.0000   0.0000

          k =-0.5000 0.7717 0.0000 (  3894 PWs)   bands (ev):

   -26.2137 -26.2090 -17.2357 -15.0378 -14.1526 -12.7302  -9.8423  -9.2010
    -8.6151  -7.7806  -7.4565  -6.6337  -5.3299  -4.5293  -3.9282   3.5789
     4.2737   5.7073   7.8228

     occupation numbers 
     1.0000   1.0000   1.0000   1.0000   1.0000   1.0000   1.0000   1.0000
     1.0000   1.0000   1.0000   1.0000   1.0000   1.0000   1.0000   0.0000
     0.0000   0.0000   0.0000

          k =-0.5000-0.2909 0.0001 (  3882 PWs)   bands (ev):

   -26.2104 -26.2068 -16.9904 -15.4379 -13.9711 -13.2135  -9.7956  -9.2341
    -8.1511  -7.7792  -7.0854  -6.7958  -5.2405  -4.4818  -3.6594   2.8772
     3.9821   5.1230   7.9433

     occupation numbers 
     1.0000   1.0000   1.0000   1.0000   1.0000   1.0000   1.0000   1.0000
     1.0000   1.0000   1.0000   1.0000   1.0000   1.0000   1.0000   0.0000
     0.0000   0.0000   0.0000

     the Fermi energy is     0.3188 ev

!    total energy              =    -189.94141830 Ry
     Harris-Foulkes estimate   =    -189.94141843 Ry
     estimated scf accuracy    <       0.00000015 Ry

     total all-electron energy =      -701.913533 Ry

     The total energy is the sum of the following terms:

     one-electron contribution =   -1524.60683417 Ry
     hartree contribution      =     772.01495216 Ry
     xc contribution           =     -37.20905935 Ry
     ewald contribution        =     644.85709309 Ry
     one-center paw contrib.   =     -44.99757004 Ry
      -> PAW hartree energy AE =     117.97149976 Ry
      -> PAW hartree energy PS =    -117.89160514 Ry
      -> PAW xc energy AE      =     -80.56673082 Ry
      -> PAW xc energy PS      =      35.48926617 Ry
      -> total E_H with PAW    =     772.09484677 Ry
      -> total E_XC with PAW   =     -82.28652400 Ry
     smearing contrib. (-TS)   =      -0.00000000 Ry

     convergence has been achieved in   8 iterations

     negative rho (up, down):  6.002E-04 0.000E+00

     Forces acting on atoms (cartesian axes, Ry/au):

     atom    1 type  1   force =    -0.00014898    0.00028726   -0.00998249
     atom    2 type  1   force =     0.00021512   -0.00041365    0.00116958
     atom    3 type  1   force =     0.00014720   -0.00028686    0.00980598
     atom    4 type  1   force =    -0.00021526    0.00041223   -0.00132599
     atom    5 type  2   force =    -0.00003196    0.00006041    0.01706214
     atom    6 type  2   force =     0.00003389   -0.00005939   -0.01672922
     The non-local contrib.  to forces
     atom    1 type  1   force =    -0.00128003    0.00222083   -0.40765169
     atom    2 type  1   force =     0.00120971   -0.00212528    0.08984916
     atom    3 type  1   force =     0.00127831   -0.00222121    0.40775488
     atom    4 type  1   force =    -0.00121224    0.00212420   -0.08965721
     atom    5 type  2   force =     0.00029441   -0.00041388    3.17496394
     atom    6 type  2   force =    -0.00027010    0.00042861   -3.17440159
     The ionic contribution  to forces
     atom    1 type  1   force =    -0.01362292    0.02363249  -13.62489201
     atom    2 type  1   force =     0.01421454   -0.02449828   -9.46478065
     atom    3 type  1   force =     0.01366226   -0.02361010   13.62505266
     atom    4 type  1   force =    -0.01422334    0.02449284    9.46475964
     atom    5 type  2   force =    -0.00162203    0.00265530  -67.63772615
     atom    6 type  2   force =     0.00159148   -0.00267224   67.63758650
     The local contribution  to forces
     atom    1 type  1   force =     0.01466857   -0.02541521   14.01477949
     atom    2 type  1   force =    -0.01512314    0.02606188    9.37859805
     atom    3 type  1   force =    -0.01470673    0.02539274  -14.01437264
     atom    4 type  1   force =     0.01513409   -0.02605685   -9.37795497
     atom    5 type  2   force =     0.00129626   -0.00218126   64.49058954
     atom    6 type  2   force =    -0.00128792    0.00218454  -64.49048204
     The core correction contribution to forces
     atom    1 type  1   force =     0.00008561   -0.00015145    0.00865320
     atom    2 type  1   force =    -0.00008537    0.00014619   -0.00165242
     atom    3 type  1   force =    -0.00008711    0.00015220   -0.00873427
     atom    4 type  1   force =     0.00008572   -0.00014681    0.00151573
     atom    5 type  2   force =    -0.00000026    0.00000076   -0.01025684
     atom    6 type  2   force =     0.00000009   -0.00000080    0.01025470
     The Hubbard contrib.    to forces
     atom    1 type  1   force =     0.00000000    0.00000000    0.00000000
     atom    2 type  1   force =     0.00000000    0.00000000    0.00000000
     atom    3 type  1   force =     0.00000000    0.00000000    0.00000000
     atom    4 type  1   force =     0.00000000    0.00000000    0.00000000
     atom    5 type  2   force =     0.00000000    0.00000000    0.00000000
     atom    6 type  2   force =     0.00000000    0.00000000    0.00000000
     The SCF correction term to forces
     atom    1 type  1   force =    -0.00000028    0.00000055   -0.00083905
     atom    2 type  1   force =    -0.00000069    0.00000178   -0.00081212
     atom    3 type  1   force =     0.00000039   -0.00000056    0.00013781
     atom    4 type  1   force =     0.00000044   -0.00000122    0.00004326
     atom    5 type  2   force =    -0.00000041   -0.00000057   -0.00047590
     atom    6 type  2   force =     0.00000027    0.00000044    0.00034564

     Total force =     0.027759     Total SCF correction =     0.001315


     Computing stress (Cartesian axis) and pressure


     negative rho (up, down):  6.002E-04 0.000E+00
          total   stress  (Ry/bohr**3)                   (kbar)     P=  -12.04
  -0.00006615   0.00001688   0.00000051         -9.73      2.48      0.08
   0.00001688  -0.00000776  -0.00000100          2.48     -1.14     -0.15
   0.00000051  -0.00000100  -0.00017168          0.08     -0.15    -25.25

     kinetic stress (kbar)   9297.40      2.54     -0.48
                                2.54   9306.13      0.80
                               -0.48      0.80   8438.64

     local   stress (kbar)-293968.07    -15.10     -9.76
                              -15.10-294019.67     16.71
                               -9.76     16.71 283572.79

     nonloc. stress (kbar)   3182.96      0.07      0.14
                                0.07   3183.21     -0.25
                                0.14     -0.25   2915.28

     hartree stress (kbar) 144919.80      5.10      2.37
                                5.10 144937.15     -4.05
                                2.37     -4.05-140376.71

     exc-cor stress (kbar)  -1146.79      0.02      0.01
                                0.02  -1146.73     -0.02
                                0.01     -0.02  -1143.58

     corecor stress (kbar)   -951.76     -0.05     -0.02
                               -0.05   -951.93      0.04
                               -0.02      0.04   -943.74

     ewald   stress (kbar) 138656.73      9.91      7.82
                                9.91 138690.70    -13.38
                                7.82    -13.38-152487.93

     hubbard stress (kbar)      0.00      0.00      0.00
                                0.00      0.00      0.00
                                0.00      0.00      0.00

     london  stress (kbar)      0.00      0.00      0.00
                                0.00      0.00      0.00
                                0.00      0.00      0.00

     DFT-D3  stress (kbar)      0.00      0.00      0.00
                                0.00      0.00      0.00
                                0.00      0.00      0.00

     XDM     stress (kbar)      0.00      0.00      0.00
                                0.00      0.00      0.00
                                0.00      0.00      0.00

     dft-nl  stress (kbar)      0.00      0.00      0.00
                                0.00      0.00      0.00
                                0.00      0.00      0.00

     TS-vdW  stress (kbar)      0.00      0.00      0.00
                                0.00      0.00      0.00
                                0.00      0.00      0.00

     3D-RISM stress (kbar)      0.00      0.00      0.00
                                0.00      0.00      0.00
                                0.00      0.00      0.00



     Writing output data file pwscf.save\

     init_run     :     15.09s CPU      7.81s WALL (       1 calls)
     electrons    :     94.20s CPU     62.73s WALL (       1 calls)
     forces       :      8.78s CPU      1.44s WALL (       1 calls)
     stress       :     21.64s CPU      4.66s WALL (       1 calls)

     Called by init_run:
     wfcinit      :      4.23s CPU      3.05s WALL (       1 calls)
     wfcinit:atom :      0.12s CPU      0.07s WALL (      74 calls)
     wfcinit:wfcr :      3.38s CPU      2.28s WALL (      74 calls)
     potinit      :      4.41s CPU      0.65s WALL (       1 calls)
     hinit0       :      6.36s CPU      4.00s WALL (       1 calls)

     Called by electrons:
     c_bands      :     74.17s CPU     50.90s WALL (       8 calls)
     sum_band     :     15.59s CPU      9.59s WALL (       8 calls)
     v_of_rho     :      1.45s CPU      0.54s WALL (       9 calls)
     v_h          :      0.09s CPU      0.03s WALL (       9 calls)
     v_xc         :      1.75s CPU      0.60s WALL (      11 calls)
     newd         :      0.66s CPU      0.58s WALL (       9 calls)
     PAW_pot      :      2.47s CPU      1.26s WALL (       9 calls)
     mix_rho      :      0.31s CPU      0.08s WALL (       8 calls)

     Called by c_bands:
     init_us_2    :      1.39s CPU      0.80s WALL (    1406 calls)
     cegterg      :     72.06s CPU     49.34s WALL (     592 calls)

     Called by sum_band:
     sum_band:bec :      0.12s CPU      0.39s WALL (     592 calls)
     addusdens    :      1.11s CPU      0.78s WALL (       8 calls)

     Called by *egterg:
     h_psi        :     65.98s CPU     40.13s WALL (    2701 calls)
     s_psi        :      2.09s CPU      1.71s WALL (    2701 calls)
     g_psi        :      0.28s CPU      0.28s WALL (    2035 calls)
     cdiaghg      :      1.30s CPU      1.66s WALL (    2627 calls)
     cegterg:over :      2.69s CPU      2.51s WALL (    2035 calls)
     cegterg:upda :      0.88s CPU      1.94s WALL (    2035 calls)
     cegterg:last :      0.36s CPU      0.60s WALL (     596 calls)

     Called by h_psi:
     h_psi:pot    :     65.33s CPU     39.39s WALL (    2701 calls)
     h_psi:calbec :      5.03s CPU      1.99s WALL (    2701 calls)
     vloc_psi     :     58.62s CPU     35.67s WALL (    2701 calls)
     add_vuspsi   :      1.67s CPU      1.72s WALL (    2701 calls)

     General routines
     calbec       :      6.59s CPU      2.90s WALL (    3663 calls)
     fft          :      0.17s CPU      0.09s WALL (     140 calls)
     ffts         :      0.02s CPU      0.01s WALL (      17 calls)
     fftw         :     33.31s CPU     19.44s WALL (   78186 calls)
     interpolate  :      0.05s CPU      0.03s WALL (       9 calls)

     Parallel routines

     PAW routines
     PAW_pot      :      2.47s CPU      1.26s WALL (       9 calls)

     PWSCF        :   2m21.77s CPU   1m19.23s WALL


   This run was terminated on:  14:21: 1   1Dec2024            

=------------------------------------------------------------------------------=
   JOB DONE.
=------------------------------------------------------------------------------=
